LAMMPS (3 Mar 2020)
Running on 6 partitions of processors
Step MaxReplicaForce MaxAtomForce GradV0 GradV1 GradVc EBF EBR RDT RD1 PE1 RD2 PE2 ... RDN PEN
0    160.80747    112.62669 6.8465958e-06    1.4468595    58.123129    58.985804    56.928155    4.0199612            0   -4859.8725          0.2   -4852.7004          0.4   -4810.8932          0.6   -4800.8867          0.8   -4847.6103            1   -4857.8148 
100   0.55856655   0.32440849 9.2456081e-08 0.00022827747    5.5805609    7.3687282    7.3721776    4.0058984            0   -4859.8725   0.20348541   -4858.1583   0.40374946   -4852.5038   0.60382478   -4852.6379   0.80281763   -4858.0386            1   -4859.8759 
200   0.19339912  0.080679707 3.2623386e-09 7.0376204e-06    4.4702337    6.8429772    6.8464416     4.277169            0   -4859.8725   0.20244635   -4858.5437   0.40188972   -4853.0295   0.59934985   -4853.1608   0.79814073    -4858.546            1    -4859.876 
300   0.14567623  0.018718094 1.5296263e-10 3.0686856e-07    4.4196623    6.7305187    6.7339831    4.2730767            0   -4859.8725   0.20029502   -4858.5573   0.40029035    -4853.142   0.60014378   -4853.2384   0.79998428   -4858.5589            1    -4859.876 
400   0.16048528  0.039338689 4.1532937e-12 7.6311842e-09    4.5521151    6.6411149    6.6445793    4.2675575            0   -4859.8725   0.20013767   -4858.5636   0.40013498   -4853.2314   0.60019035   -4853.3045   0.80008714   -4858.5636            1    -4859.876 
500   0.41729209   0.25349928 1.4131466e-13 2.4209951e-10    4.2292846    6.5075356        6.511    4.2612082            0   -4859.8725    0.2003946   -4858.5698   0.40043183   -4853.3949   0.60044869    -4853.365   0.80008443   -4858.5684            1    -4859.876 
600    2.4493277    1.8567195 1.5458503e-14 5.9394934e-12    2.9888247    3.2211874    3.2246518     4.629392            0   -4859.8725   0.20776728   -4858.5049   0.41248547    -4858.433   0.61544128   -4856.6513   0.81124135   -4858.5721            1    -4859.876 
700   0.02460738 0.0015734445 1.3766221e-14 7.624122e-15   0.10708843    1.4421623    1.4456267    4.6088485            0   -4859.8725   0.20162373    -4858.536   0.40258604   -4858.4303   0.60253251   -4858.5215   0.80159871   -4858.5473            1    -4859.876 
800  0.024558164 0.0015137245 3.4139646e-14 2.6440353e-15   0.11504317    1.4430845    1.4465489    4.6094571            0   -4859.8725   0.20025671   -4858.5458   0.40041117   -4858.4294   0.60040559   -4858.5236    0.8002621   -4858.5473            1    -4859.876 
900  0.033845333  0.010705044 5.8755253e-14 7.0772708e-15   0.11540023    1.4431321    1.4465965    4.6100331            0   -4859.8725   0.20002453   -4858.5516    0.4000463   -4858.4294   0.60004941   -4858.5241   0.80003807   -4858.5511            1    -4859.876 
1000  0.031685606 0.0095136101 2.5888756e-14 2.2670453e-14   0.11452624    1.4430351    1.4464995     4.610595            0   -4859.8725    0.1999888   -4858.5564   0.39998873   -4858.4295   0.59999272   -4858.5244   0.80000224   -4858.5553            1    -4859.876 
1100   0.02488733 0.0027327194 5.8573841e-14 4.846579e-14   0.11339042    1.4429092    1.4463736    4.6111955            0   -4859.8725   0.19998509   -4858.5615   0.39998023   -4858.4296   0.59998365   -4858.5247   0.79999629   -4858.5599            1    -4859.876 
1200  0.039558404  0.014489367 3.1660603e-14 6.3409379e-14   0.11226411    1.4427831    1.4462475    4.6117505            0   -4859.8725      0.19998   -4858.5664   0.39997587   -4858.4297   0.59998028    -4858.525   0.79999435   -4858.5645            1    -4859.876 
1300  0.024605621 0.0008134373 5.2326522e-14 2.7430471e-14   0.11106826    1.4426536     1.446118    4.6123755            0   -4859.8725   0.19998483   -4858.5717   0.39997929   -4858.4298    0.5999824   -4858.5253   0.79999533   -4858.5692            1    -4859.876 
1400  0.030378954 0.0079648117 1.4765132e-14 2.071086e-14    0.1099552    1.4425335    1.4459979    4.6129555            0   -4859.8725    0.1999874   -4858.5767   0.39998125     -4858.43   0.59998367   -4858.5255   0.79999593   -4858.5738            1    -4859.876 
1500  0.024969963 0.00066513216 1.8276287e-14 1.6281342e-14   0.10883079    1.4424117    1.4458761    4.6135304            0   -4859.8725    0.1999853    -4858.582   0.39997991   -4858.4301   0.59998283   -4858.5258   0.79999547   -4858.5786            1    -4859.876 
1600  0.033601288 0.0098694429 1.1576318e-14 3.9012931e-14   0.10771507    1.4422935    1.4457579     4.614126            0   -4859.8725    0.1999881   -4858.5873   0.39998204   -4858.4302   0.59998424    -4858.526   0.79999614   -4858.5834            1    -4859.876 
1700  0.025507375 0.00074458373 1.4324959e-14 2.5124226e-15   0.10667464    1.4421823    1.4456467    4.6146715            0   -4859.8725   0.19998568   -4858.5926   0.39998044   -4858.4303   0.59998324   -4858.5262   0.79999562    -4858.588            1    -4859.876 
1800  0.025856397 0.00073292045 1.1740561e-14 5.1253119e-15    0.1055934    1.4420687    1.4455331    4.6152571            0   -4859.8725   0.19998589   -4858.5982    0.3999808   -4858.4304    0.5999835   -4858.5265   0.79999571    -4858.593            1    -4859.876 
1900  0.026397451 0.0018868143 1.2885825e-14 6.3694506e-15   0.10457827    1.4419625    1.4454269    4.6158159            0   -4859.8725   0.19998586   -4858.6038   0.39998091   -4858.4305   0.59998361   -4858.5267   0.79999574   -4858.5979            1    -4859.876 
2000  0.026772383 0.0012117613 1.3758994e-14 1.071257e-14    0.1035457    1.4418554    1.4453198    4.6163971            0   -4859.8725   0.19998651   -4858.6097   0.39998158   -4858.4306   0.59998408   -4858.5269   0.79999594   -4858.6031            1    -4859.876 
2100  0.027332195 0.0014655836 9.3801424e-15 1.9495467e-14   0.10253744    1.4417513    1.4452157    4.6169758            0   -4859.8725   0.19998682   -4858.6157   0.39998196   -4858.4307   0.59998437   -4858.5271   0.79999606   -4858.6084            1    -4859.876 
2200  0.027837418 0.0014756646 1.7492643e-14 1.1947838e-14   0.10152042    1.4416467    1.4451111    4.6175727            0   -4859.8725   0.19998681   -4858.6222   0.39998215   -4858.4308   0.59998454   -4858.5274   0.79999611    -4858.614            1    -4859.876 
2300  0.035984991 0.0086835237 1.4834028e-14 2.8089903e-14   0.10050972    1.4415442    1.4450086    4.6181843            0   -4859.8725   0.19998848   -4858.6291    0.3999835   -4858.4309   0.59998544   -4858.5276   0.79999652   -4858.6198            1    -4859.876 
2400  0.043622633  0.013683604 1.0832682e-13 7.6645776e-14  0.099567098    1.4414463    1.4449107    4.6187693            0   -4859.8725   0.19998619    -4858.636   0.39998222    -4858.431    0.5999847   -4858.5278   0.79999612   -4858.6258            1    -4859.876 
2500  0.052319651  0.017702663 5.3003848e-13 2.4123463e-13  0.098626788    1.4413506     1.444815    4.6193755            0   -4859.8725   0.19998674   -4858.6434   0.39998287   -4858.4311   0.59998517    -4858.528   0.79999631    -4858.632            1    -4859.876 
2600  0.041334755  0.011088514 3.0280767e-14 2.0722023e-14  0.097703899    1.4412577     1.444722      4.61999            0   -4859.8725   0.19998784   -4858.6512    0.3999839   -4858.4312   0.59998589   -4858.5282   0.79999663   -4858.6384            1    -4859.876 
2700  0.031706532 0.0014819367 8.8462539e-15 1.8809463e-14  0.096809523    1.4411683    1.4446327     4.620603            0   -4859.8725   0.19998871   -4858.6592   0.39998475   -4858.4313   0.59998646   -4858.5284   0.79999686   -4858.6451            1    -4859.876 
2800  0.032704244 0.0016213526 1.7638539e-14 1.6240015e-14  0.095929506    1.4410796     1.444544    4.6212373            0   -4859.8725   0.19998914    -4858.668   0.39998536   -4858.4314   0.59998689   -4858.5286   0.79999702   -4858.6523            1    -4859.876 
2900  0.036393449 0.0063660328 3.8701266e-14 2.9869702e-14  0.095055366    1.4409919    1.4444563    4.6218931            0   -4859.8725   0.19998934   -4858.6774   0.39998577   -4858.4315   0.59998719   -4858.5287    0.7999971   -4858.6599            1    -4859.876 
3000  0.049613764  0.014658724 5.7775274e-13 3.5984571e-13  0.094218859     1.440906    1.4443704    4.6225823            0   -4859.8725    0.1999915   -4858.6875    0.3999878   -4858.4316   0.59998861   -4858.5289   0.79999773   -4858.6681            1    -4859.876 
3100  0.035957144 0.0013583297 1.8954047e-14 1.6655772e-15  0.093406728    1.4408256      1.44429    4.6232423            0   -4859.8725   0.19999084   -4858.6979   0.39998741   -4858.4317    0.5999883   -4858.5291   0.79999749   -4858.6764            1    -4859.876 
3200  0.037315619 0.0017165227 1.1724171e-14 1.5450902e-14  0.092575935     1.440742    1.4442064    4.6239765            0   -4859.8725   0.19999141   -4858.7097   0.39998826   -4858.4317   0.59998884   -4858.5293   0.79999765   -4858.6858            1    -4859.876 
3300  0.058428312  0.019948317 1.1330574e-13 1.9479088e-14  0.091761732    1.4406615    1.4441259    4.6246997            0   -4859.8725   0.19998831   -4858.7222   0.39998601   -4858.4318   0.59998727   -4858.5295   0.79999675   -4858.6958            1    -4859.876 
3400  0.039956185  0.001986776 7.9350226e-14 1.9319202e-14   0.09098846    1.4405824    1.4440468    4.6254968            0   -4859.8725   0.19999285   -4858.7358   0.39998957   -4858.4319   0.59998963   -4858.5296    0.7999978   -4858.7064            1    -4859.876 
3500  0.070939079  0.026368733 4.206485e-13 2.5591498e-13  0.090200631    1.4405051    1.4439695    4.6262503            0   -4859.8725   0.19998608   -4858.7502   0.39998484    -4858.432   0.59998632   -4858.5298     0.799996   -4858.7178            1    -4859.876 
3600  0.045109869 0.0060034633 2.1887614e-14 6.8857968e-15  0.089468552    1.4404297    1.4438941    4.6271108            0   -4859.8725   0.19999506   -4858.7656   0.39999151   -4858.4321   0.59999072     -4858.53   0.79999806     -4858.73            1    -4859.876 
3700  0.082914837  0.030149045 2.8610159e-13 6.6686414e-13  0.088758036    1.4403576     1.443822    4.6279656            0   -4859.8725   0.20000326   -4858.7814    0.3999978   -4858.4321   0.59999479   -4858.5301   0.79999994   -4858.7426            1    -4859.876 
3800  0.044719681 0.0021397139 1.7544057e-14 5.1481439e-15  0.088036876    1.4402877     1.443752    4.6287156            0   -4859.8725   0.19999349    -4858.798   0.39999036   -4858.4322   0.59998966   -4858.5303   0.79999724   -4858.7558            1    -4859.876 
3900  0.063515542  0.020381153 5.7574654e-14 5.7376157e-14  0.087315981    1.4402178    1.4436821     4.629497            0   -4859.8725   0.19998567   -4858.8157   0.39998437   -4858.4323   0.59998547   -4858.5304   0.79999501     -4858.77            1    -4859.876 
4000  0.053794217  0.012711805 1.9253417e-13 1.0242578e-13  0.086613368    1.4401486     1.443613    4.6303431            0   -4859.8725   0.19998816   -4858.8342   0.39998593   -4858.4323   0.59998635   -4858.5306   0.79999533   -4858.7851            1    -4859.876 
4100  0.047702504 0.0025555843 1.6726143e-14 1.3061001e-14  0.085896013    1.4400786     1.443543    4.6312158            0   -4859.8725   0.19999145   -4858.8541   0.39998846   -4858.4324   0.59998789   -4858.5307   0.79999601   -4858.8014            1    -4859.876 
4200  0.052521159 0.0098469937 4.8952764e-14 2.4052556e-14  0.085168876    1.4400093    1.4434737    4.6320377            0   -4859.8725   0.19998758   -4858.8747   0.39998537   -4858.4325   0.59998567   -4858.5309   0.79999483   -4858.8185            1    -4859.876 
4300  0.050029114 0.0033299743  2.68736e-13 1.2197862e-13  0.084470347    1.4399425    1.4434069    4.6328759            0   -4859.8725   0.19999331   -4858.8955   0.39998902   -4858.4325   0.59998802    -4858.531   0.79999596   -4858.8359            1    -4859.876 
4400  0.054491161  0.010343041 6.6537044e-14 1.5947509e-14  0.083744271    1.4398752    1.4433396    4.6336386            0   -4859.8725   0.19998596   -4858.9172   0.39998365   -4858.4326   0.59998437   -4858.5311   0.79999413   -4858.8543            1    -4859.876 
4500  0.055853765  0.011044076 3.3704152e-14 6.8050394e-14  0.083026222    1.4398089    1.4432733    4.6344064            0   -4859.8725   0.19998486   -4858.9393   0.39998263   -4858.4327   0.59998365   -4858.5313    0.7999938   -4858.8733            1    -4859.876 
4600  0.095686564  0.033088935 2.3001057e-12 7.871165e-13  0.082302909    1.4397439    1.4432083    4.6350785            0   -4859.8725   0.19997317   -4858.9615   0.39997386   -4858.4327   0.59997776   -4858.5314   0.79999092   -4858.8928            1    -4859.876 
4700  0.051840625 0.0042158967 2.4934315e-14 5.3964881e-14  0.081609441    1.4396802    1.4431446    4.6358602            0   -4859.8725    0.1999873   -4858.9842   0.39998386   -4858.4328   0.59998453   -4858.5315    0.7999944   -4858.9126            1    -4859.876 
4800  0.051817013 0.0029920709 1.8985964e-14 1.098978e-14  0.080896782    1.4396166     1.443081    4.6365473            0   -4859.8725     0.199989   -4859.0071    0.3999852   -4858.4329   0.59998552   -4858.5317   0.79999501    -4858.933            1    -4859.876 
4900  0.052784083 0.0046088361 3.7035206e-14 2.3572439e-14  0.080174113    1.4395534    1.4430178    4.6371769            0   -4859.8725   0.19998629   -4859.0305   0.39998292   -4858.4329   0.59998415   -4858.5318   0.79999448   -4858.9541            1    -4859.876 
5000  0.062956786  0.012965983 1.7196019e-13 1.4494137e-13  0.079432771    1.4394895    1.4429539    4.6377751            0   -4859.8725   0.19998133   -4859.0548   0.39997948    -4858.433   0.59998202   -4858.5319    0.7999936   -4858.9761            1    -4859.876 
5100  0.071160512  0.016265199 5.3907837e-14 6.3203897e-14   0.07871324     1.439428    1.4428924    4.6383388            0   -4859.8725    0.1999795   -4859.0788   0.39997803   -4858.4331    0.5999813    -4858.532   0.79999345    -4858.998            1    -4859.876 
5200  0.054987326 0.0062798695 1.7326426e-14 4.0993787e-14  0.078006305    1.4393668    1.4428312    4.6389324            0   -4859.8725   0.19998846   -4859.1036   0.39998476   -4858.4331   0.59998601   -4858.5322     0.799996   -4859.0204            1    -4859.876 
5300  0.060438184  0.014707393 3.0639528e-14 4.7800149e-14  0.077283902    1.4393056      1.44277    4.6393989            0   -4859.8725   0.19998469   -4859.1308   0.39998112   -4858.4332   0.59998362   -4858.5323   0.79999498   -4859.0436            1    -4859.876 
5400   0.11961937  0.027525488 2.7806195e-13 3.2868535e-13  0.076617352     1.439233    1.4426974    4.6394019            0   -4859.8725   0.19996445   -4859.2321    0.3999548   -4858.4333   0.59996088   -4858.5324   0.79998212    -4859.068            1    -4859.876 
5500  0.095592314   0.03329589 9.385233e-14 9.5602231e-14   0.07594191    1.4391695    1.4426339    4.6397852            0   -4859.8725     0.199992   -4859.2935   0.39999107   -4858.4333   0.59999456   -4858.5325   0.80000427   -4859.0966            1    -4859.876 
5600   0.10000384  0.016993332 8.1090091e-14 6.3336412e-14  0.075484849    1.4391266     1.442591    4.6396583            0   -4859.8725   0.20000262     -4859.35   0.40001021   -4858.4334   0.60001304   -4858.5326     0.800014   -4859.2162            1    -4859.876 
5700  0.084956107 0.0032616157 2.578127e-14 2.8042864e-14  0.074904034    1.4390775    1.4425419    4.6402065            0   -4859.8725   0.19999216    -4859.407   0.39999122   -4858.4334    0.5999924   -4858.5327    0.7999999   -4859.2824            1    -4859.876 
5800  0.082126812  0.008167241 1.1797323e-13 6.9036895e-14  0.074253528    1.4390239    1.4424883     4.640751            0   -4859.8725    0.1999914   -4859.4595   0.39998904   -4858.4335    0.5999899   -4858.5329   0.79999816   -4859.3452            1    -4859.876 
5900  0.078885839 0.0052666387 5.8467514e-14 5.8496426e-14  0.073588929    1.4389705    1.4424349    4.6412884            0   -4859.8725   0.19999095   -4859.5073   0.39998848   -4858.4335   0.59998934    -4858.533   0.79999776   -4859.4034            1    -4859.876 
6000   0.11564687  0.020655209 2.2301834e-13 1.1302372e-13  0.072921185    1.4389178    1.4423822    4.6418341            0   -4859.8725   0.19999224   -4859.5505   0.39998949   -4858.4336   0.59999002   -4858.5331   0.79999809    -4859.457            1    -4859.876 
6100  0.071875802 0.0016980689 1.6869881e-14 1.4803114e-14  0.072267426    1.4388677    1.4423321    4.6423449            0   -4859.8725   0.19999094   -4859.5885    0.3999886   -4858.4336   0.59998946   -4858.5332   0.79999781   -4859.5044            1    -4859.876 
6200  0.068202114 0.0013757301 2.497034e-14 1.0741416e-14  0.071590533    1.4388164    1.4422808    4.6428786            0   -4859.8725   0.19999095   -4859.6238   0.39998865   -4858.4337   0.59998954   -4858.5333   0.79999787    -4859.549            1    -4859.876 
6300  0.064742262 0.0018736004 2.0010534e-14 2.3606928e-14  0.070901242    1.4387658    1.4422302    4.6433885            0   -4859.8725   0.19999092   -4859.6557   0.39998844   -4858.4337   0.59998939   -4858.5334   0.79999783   -4859.5891            1    -4859.876 
6400  0.061903065 0.0020576424 1.557163e-13 2.8544482e-14  0.070203485    1.4387168    1.4421812    4.6438989            0   -4859.8725   0.19999188    -4859.684   0.39998956   -4858.4338   0.59999043   -4858.5335   0.79999836   -4859.6256            1    -4859.876 
6500  0.058025767 0.0011767338 2.3801884e-14 1.1948606e-14  0.069635168    1.4386699    1.4421342    4.6444171            0   -4859.8725   0.19999176   -4859.7083   0.39998978   -4858.4338   0.59999049   -4858.5336   0.79999838   -4859.6573            1    -4859.876 
6600   0.05803541  0.012278325 1.6578121e-13 5.8153197e-14  0.071754905    1.4386847    1.4421491    4.6450484            0   -4859.8725   0.19998723   -4859.7301   0.40000115   -4858.4338   0.59999832   -4858.5337    0.8000032   -4859.6857            1    -4859.876 
6700  0.051158541 0.00098008608 9.2430742e-15 5.7365345e-15  0.068328671     1.438578    1.4420424    4.6454512            0   -4859.8725   0.19999195   -4859.7488   0.39998972   -4858.4339   0.59999041   -4858.5338   0.79999825   -4859.7104            1    -4859.876 
6800  0.047917947 0.00091848738 1.4719501e-14 1.4780608e-14   0.06775297    1.4385333    1.4419977    4.6459716            0   -4859.8725   0.19999194   -4859.7653   0.39999002    -4858.434   0.59999058   -4858.5339   0.79999832   -4859.7322            1    -4859.876 
6900  0.044835905 0.00085898882 2.4385575e-14 2.5802865e-14  0.067141382    1.4384896     1.441954    4.6464875            0   -4859.8725     0.199992   -4859.7796   0.39999013    -4858.434   0.59999063    -4858.534   0.79999831   -4859.7513            1    -4859.876 
7000  0.041945519 0.0029930663 3.6408103e-14 6.2457428e-14  0.067116379     1.438451    1.4419154    4.6470206            0   -4859.8725   0.19999095   -4859.7919   0.39999256    -4858.434   0.59999216   -4858.5341   0.79999937   -4859.7677            1    -4859.876 
7100  0.039086654 0.0012671478 8.4297161e-14 1.4719272e-13  0.066120153    1.4384046    1.4418689    4.6475339            0   -4859.8725   0.19999171   -4859.8031   0.39999105   -4858.4341   0.59999117   -4858.5342   0.79999864   -4859.7826            1    -4859.876 
7200  0.036497224 0.00069838435 1.4585188e-14 3.1733468e-15  0.065247639     1.438363    1.4418274    4.6480285            0   -4859.8725   0.19999229   -4859.8124   0.39998989   -4858.4341    0.5999904   -4858.5342   0.79999805   -4859.7951            1    -4859.876 
7300  0.033885296 0.00085873645 2.2180729e-14 2.8585793e-14  0.064458517    1.4383203    1.4417847    4.6485638            0   -4859.8725   0.19999266    -4859.821   0.39998921   -4858.4342   0.59998996   -4858.5343   0.79999768   -4859.8066            1    -4859.876 
7400  0.035664108 0.0075556782 1.4807761e-13 8.8207774e-14  0.065721997     1.438304    1.4417683    4.6491586            0   -4859.8725    0.1999891   -4859.8281   0.39999637   -4858.4342    0.5999943   -4858.5344   0.80000114   -4859.8161            1    -4859.876 
7500  0.029357025 0.00080927834 2.9924766e-14 4.4137942e-14  0.063296819    1.4382404    1.4417048    4.6495962            0   -4859.8725    0.1999927   -4859.8342   0.39998928   -4858.4342   0.59998997   -4858.5345    0.7999976   -4859.8244            1    -4859.876 
7600  0.028937698 0.0061032913 1.4503079e-13 1.3803682e-13  0.064231456    1.4382173    1.4416817     4.650176            0   -4859.8725   0.19998963   -4859.8395   0.39999489   -4858.4343   0.59999314   -4858.5346   0.80000056   -4859.8315            1    -4859.876 
7700  0.028099557 0.0059230601 8.7124313e-14 2.4027258e-13  0.063625006    1.4381783    1.4416427    4.6506853            0   -4859.8725    0.1999897    -4859.844   0.39999468   -4858.4343   0.59999294   -4858.5347   0.80000046   -4859.8376            1    -4859.876 
7800  0.023618448 0.00045199748 8.2995368e-15 1.7487933e-14  0.061720906    1.4381258    1.4415902    4.6511351            0   -4859.8725    0.1999925    -4859.848   0.39998973   -4858.4344   0.59999017   -4858.5348   0.79999772   -4859.8429            1    -4859.876 
7900  0.021962197 0.00042041799 2.5536907e-14 7.7891017e-15  0.061193395    1.4380891    1.4415535    4.6516419            0   -4859.8725   0.19999246   -4859.8513   0.39998978   -4858.4344   0.59999018   -4858.5348   0.79999772   -4859.8475            1    -4859.876 
8000  0.020432468 0.00039119226 2.4387042e-14 1.7178581e-14   0.06071474    1.4380535    1.4415179    4.6521443            0   -4859.8725   0.19999233   -4859.8542   0.39998997   -4858.4344   0.59999025   -4858.5349    0.7999978   -4859.8514            1    -4859.876 
8100  0.018962219 0.0007675912 2.0832119e-14 6.9862825e-14  0.059981887    1.4380175    1.4414819    4.6526486            0   -4859.8725   0.19999277   -4859.8568   0.39998927   -4858.4345   0.59998989    -4858.535   0.79999734   -4859.8548            1    -4859.876 
8200  0.017593998 0.00033710149 2.548195e-14 1.5585575e-14  0.059638304    1.4379817     1.441446    4.6531718            0   -4859.8725   0.19999232    -4859.859   0.39998994   -4858.4345   0.59999019   -4858.5351   0.79999775   -4859.8578            1    -4859.876 
8300  0.016315458 0.00033474547 6.8345331e-14 6.1057368e-14  0.059137255    1.4379465    1.4414108    4.6536887            0   -4859.8725   0.19999222   -4859.8609   0.39998999   -4858.4345   0.59999013   -4858.5352   0.79999781   -4859.8604            1    -4859.876 
8400  0.015160291 0.00029069443 1.7199394e-14 2.5719693e-14  0.058587521    1.4379127    1.4413771    4.6541856            0   -4859.8725   0.19999231   -4859.8625   0.39998985   -4858.4346   0.59999007   -4858.5352   0.79999768   -4859.8625            1    -4859.876 
8500  0.014050197 0.00026953032 1.6903642e-14 8.9253298e-15  0.058060352    1.4378784    1.4413428    4.6547005            0   -4859.8725   0.19999231   -4859.8639    0.3999898   -4858.4346   0.59999002   -4858.5353   0.79999764   -4859.8644            1    -4859.876 
8600  0.013033552  0.001401877 3.354548e-13 9.7831626e-15  0.057816138    1.4378459    1.4413103    4.6552245            0   -4859.8725   0.19999156   -4859.8651   0.39999044   -4858.4346      0.59999   -4858.5354   0.79999834   -4859.8661            1    -4859.876 
8700  0.012092809 0.0018268243 2.6368303e-13 2.3562924e-13   0.05664496    1.4378138    1.4412782    4.6556855            0   -4859.8725   0.19999352   -4859.8661    0.3999888   -4858.4347   0.59999005   -4858.5354   0.79999636   -4859.8675            1    -4859.876 
8800  0.011247278 0.00021607403 1.876885e-14 9.6686044e-15  0.056565194    1.4377812    1.4412456    4.6561998            0   -4859.8725    0.1999923    -4859.867   0.39998969   -4858.4347   0.59998988   -4858.5355   0.79999753   -4859.8686            1    -4859.876 
8900   0.01080669 0.0022147309 9.7864055e-13 4.6409263e-13  0.056519577    1.4377517     1.441216    4.6567327            0   -4859.8725   0.19999093   -4859.8677   0.39999052   -4858.4347   0.59998952   -4858.5356   0.79999884   -4859.8696            1    -4859.876 
8960 0.0099989899 0.00026991138 9.7146371e-14 4.1702981e-14  0.055728139    1.4377316     1.441196    4.6569846            0   -4859.8725    0.1999925   -4859.8681   0.39998949   -4858.4348   0.59998986   -4858.5356   0.79999726   -4859.8702            1    -4859.876 
Climbing replica = 3
Step MaxReplicaForce MaxAtomForce GradV0 GradV1 GradVc EBF EBR RDT RD1 PE1 RD2 PE2 ... RDN PEN
8960  0.055764193  0.039780394 9.7146371e-14 4.1612803e-14  0.055728139    1.4377316     1.441196    4.6569846            0   -4859.8725    0.1999925   -4859.8681   0.39998949   -4858.4348   0.59998986   -4858.5356   0.79999726   -4859.8702            1    -4859.876 
9060    1.7802171    1.2236937 2.9515141e-14 1.0315338e-14    1.5997862    1.4142029    1.4176673    5.8631989            0   -4859.8725   0.20244758   -4859.4522   0.30456543   -4858.4583   0.55534397   -4858.3197   0.78413669   -4859.3557            1    -4859.876 
9160   0.71064056   0.48953115 1.0391228e-14 5.8539221e-15   0.26115091    1.5253619    1.5288263    5.7285821            0   -4859.8725   0.25471308   -4858.7151   0.35527297   -4858.3471   0.55425024   -4858.4158   0.77689968   -4859.3646            1    -4859.876 
9260   0.71512354   0.42765555 1.1217748e-14 2.9487986e-15  0.058612076    1.5059753    1.5094397    5.9414196            0   -4859.8725   0.26683402   -4858.2787   0.38283976   -4858.3665   0.57284293   -4858.5429   0.78511465   -4859.4105            1    -4859.876 
9360    15.202003    8.6634339 1.4207732e-14 1.2226677e-14    12.840651    6.5516243    6.5550887     7.031205            0   -4859.8725   0.12358896   -4858.8547   0.50585477   -4853.3209   0.65781979   -4858.9504   0.82138452   -4859.5003            1    -4859.876 
9460    11.722149     9.195288 1.4207732e-14 1.2226677e-14    9.1993657    16.187472    16.190937    17.193743            0   -4859.8725   0.22209855   -4857.3646   0.59429651    -4843.685   0.83601077   -4852.7406   0.95076213   -4859.7371            1    -4859.876 
9560    9.8619447    5.5198752 1.4207732e-14 1.1850351e-14    7.3557282    13.630412    13.633876    34.988884            0   -4859.8725   0.19438548   -4842.2443   0.56043315   -4846.2421   0.85752739   -4847.8116   0.96797561   -4851.4772            1    -4859.876 
9660    5.1239955    3.7204017 1.4207732e-14 1.1850351e-14    3.9006457    12.725137    12.728601    54.539924            0   -4859.8725   0.21202089   -4847.2197   0.54078225   -4847.1474   0.79082653   -4848.6699   0.92775424    -4842.445            1    -4859.876 
9760    7.8669156    3.8088845 1.4207732e-14 1.1850351e-14    6.2441925    12.436912    12.440376    35.133762            0   -4859.8725   0.33836701   -4845.8921   0.54834068   -4847.4356    0.6406242   -4849.5081   0.82374072    -4850.492            1    -4859.876 
9860    11.384394    6.3298268 1.4207732e-14 1.1850351e-14    8.8145007    13.723043    13.726507    34.984723            0   -4859.8725   0.21256884   -4849.8899   0.34112381   -4846.1494   0.65765996   -4848.7095   0.82057171   -4850.7724            1    -4859.876 
9960    7.9033096    3.9798362 1.4207732e-14 1.1850351e-14    1.2307578    11.067771    11.071236    42.902678            0   -4859.8725   0.14164679   -4854.3572   0.44684547   -4848.8047   0.78134066   -4847.1128   0.85673016   -4849.3025            1    -4859.876 
10060    11.561547    6.8820059 1.4207732e-14 1.1850351e-14    8.7783369     15.66453    15.667994    34.147023            0   -4859.8725   0.10887868   -4847.1147   0.34936419    -4844.208   0.59176013   -4848.4806   0.78544848    -4848.773            1    -4859.876 
10160    14.900461    8.3876826 1.1975089e-14 1.2460955e-14    11.528929    15.214446    15.217911    23.976257            0   -4859.8725  0.028884614   -4847.6132  0.098069387    -4844.658   0.35532112   -4855.9846   0.67988763   -4850.8021            1    -4859.876 
10260    3.3512127    2.3631671 9.6399283e-15 9.7810383e-15    1.6193542    10.419859    10.423323    22.736839            0   -4859.8725  0.022057434   -4854.5123  0.051866642   -4849.4526   0.34426957   -4853.8216   0.64414617    -4850.029            1    -4859.876 
10360    1.7880731   0.78118035 9.9466102e-15 9.559101e-15  0.010387947    1.7816192    1.7850836    26.347873            0   -4859.8725   0.02806958   -4856.6902  0.056348697   -4858.0909   0.32607417   -4850.3405   0.62989933   -4849.7102            1    -4859.876 
10460     3.665021    1.8963159 1.1276998e-14 8.0728558e-15 0.00016692391    1.7798793    1.7833437    34.553749            0   -4859.8725  0.021303581   -4856.7694    0.0426338   -4858.0926    0.2941205   -4850.1982    0.5929673   -4849.7544            1    -4859.876 
10560    2.2059267    1.1181515 1.1162812e-14 8.5803374e-15 8.4375818e-06    1.7798745    1.7833389    38.723275            0   -4859.8725  0.018850109   -4856.8391  0.037747904   -4858.0926   0.32728304   -4850.7865   0.64640597   -4849.9699            1    -4859.876 
10660   0.56609645   0.26050674 8.7703584e-15 8.2944415e-15 3.9957934e-07    1.7798745    1.7833389    38.732566            0   -4859.8725   0.01869651   -4856.9061  0.037443685   -4858.0926   0.35262306   -4850.2392   0.67346727   -4850.5307            1    -4859.876 
10760   0.30769807   0.12260962 9.2496034e-15 7.1215058e-15 1.4406781e-08    1.7798745    1.7833389    38.738848            0   -4859.8725  0.018536112   -4856.9774  0.037122902   -4858.0926   0.35692235   -4850.3505   0.67779455   -4851.5363            1    -4859.876 
10860   0.16125518  0.082052967 1.1124649e-14 4.4996281e-15 6.9385437e-10    1.7798745    1.7833389    38.802903            0   -4859.8725  0.018365389   -4857.0411  0.036781161   -4858.0926   0.35720744   -4850.4015   0.67824586   -4852.4583            1    -4859.876 
10960   0.15065468  0.071903534 1.1054974e-14 2.9958522e-15 3.1451443e-11    1.7798745    1.7833389    38.789573            0   -4859.8725  0.018232328   -4857.1043   0.03651486   -4858.0926   0.35754048   -4850.3874   0.67870115   -4852.4322            1    -4859.876 
11060   0.14877314  0.066587708 1.0953979e-14 3.9969002e-15 1.2974337e-12    1.7798745    1.7833389    38.778308            0   -4859.8725  0.018097194   -4857.1679  0.036244459   -4858.0926   0.35747409   -4850.3905   0.67872506   -4852.4329            1    -4859.876 
11160   0.14694062  0.032555677 8.7741172e-15 3.7542384e-15 6.5634955e-14    1.7798745    1.7833389    38.766863            0   -4859.8725  0.017969396   -4857.2279  0.035988793   -4858.0926   0.35731595   -4850.4003    0.6786541   -4852.4388            1    -4859.876 
11260   0.14513153  0.024837255 1.1523463e-14 3.7472366e-15 1.7424071e-14    1.7798745    1.7833389     38.75642            0   -4859.8725  0.017845446   -4857.2856  0.035740887   -4858.0926   0.35715692   -4850.4115   0.67857678   -4852.4453            1    -4859.876 
11360   0.16113825  0.081931194 9.1565926e-15 4.0887843e-15 1.7775989e-14    1.7798745    1.7833389    38.746333            0   -4859.8725  0.017726879   -4857.3404  0.035503809   -4858.0926   0.35700248   -4850.4228   0.67850042   -4852.4516            1    -4859.876 
11460   0.14163963   0.02885032 1.1458057e-14 4.2352408e-15 1.5356649e-14    1.7798745    1.7833389    38.735789            0   -4859.8725  0.017611223   -4857.3934  0.035272614   -4858.0926   0.35684443   -4850.4349   0.67842043   -4852.4577            1    -4859.876 
11560   0.13985019  0.054208182 1.1576137e-14 4.1285255e-15 7.302262e-15    1.7798745    1.7833389     38.72472            0   -4859.8725  0.017492912    -4857.447  0.035036179   -4858.0926   0.35668069    -4850.448   0.67833704   -4852.4639            1    -4859.876 
11660   0.13784961   0.02830939 1.0032931e-14 7.1197256e-15 6.1741808e-15    1.7798745    1.7833389    38.713152            0   -4859.8725  0.017360857   -4857.5059  0.034772356   -4858.0926   0.35650898   -4850.4639   0.67825193   -4852.4706            1    -4859.876 
11760   0.18548622  0.095841158 1.0503107e-14 8.5243758e-15 2.0434749e-14    1.7798745    1.7833389     38.70231            0   -4859.8725  0.017240763   -4857.5586  0.034532497   -4858.0926   0.35635188   -4850.4796   0.67817373   -4852.4764            1    -4859.876 
11860   0.13423001  0.017020433 1.2114958e-14 7.4142352e-15 1.0865832e-14    1.7798745    1.7833389    38.690551            0   -4859.8725  0.017122953   -4857.6095   0.03429726   -4858.0926   0.35618821   -4850.4972   0.67809004    -4852.482            1    -4859.876 
11960   0.16807534  0.079191508 1.0062142e-14  2.19707e-15 4.1916491e-15    1.7798745    1.7833389    38.679175            0   -4859.8725     0.017011   -4857.6571  0.034073757   -4858.0926   0.35603259   -4850.5153   0.67801064   -4852.4872            1    -4859.876 
12060    0.1524797  0.073651651 9.6216141e-15 1.9811807e-15 1.8295536e-15    1.7798745    1.7833389    38.669131            0   -4859.8725  0.016895239   -4857.7051  0.033842669   -4858.0926   0.35589022   -4850.5358   0.67794229   -4852.4924            1    -4859.876 
12160   0.12900746  0.020165183 9.9735004e-15 8.3653473e-15 4.3227081e-15    1.7798745    1.7833389    38.658036            0   -4859.8725    0.0167801   -4857.7521  0.033612838   -4858.0926   0.35573254   -4850.5578    0.6778628   -4852.4977            1    -4859.876 
12260   0.12725699  0.027411453 8.8029022e-15 8.1582078e-15 4.9897981e-15    1.7798745    1.7833389     38.64755            0   -4859.8725  0.016665769   -4857.7978  0.033384623   -4858.0926    0.3555803   -4850.5813   0.67778679   -4852.5029            1    -4859.876 
12360   0.12553798  0.032727926 9.443704e-15 7.2569643e-15 4.5871914e-15    1.7798745    1.7833389    38.637211            0   -4859.8725  0.016554225   -4857.8415  0.033161974   -4858.0926    0.3554309   -4850.6064   0.67771182   -4852.5079            1    -4859.876 
12460   0.12388037  0.019585237 9.5342513e-15 7.1956982e-15 5.3906051e-15    1.7798745    1.7833389    38.627491            0   -4859.8725  0.016447448   -4857.8824  0.032948832   -4858.0926    0.3552915   -4850.6337   0.67764258   -4852.5125            1    -4859.876 
12560   0.14300631   0.05796261 9.3556726e-15 4.8525188e-15 1.3714632e-14    1.7798745    1.7833389    38.616117            0   -4859.8725  0.016328419   -4857.9271  0.032711219   -4858.0926   0.35512939   -4850.6679   0.67756092   -4852.5176            1    -4859.876 
12660   0.12272669   0.04871889 9.3927816e-15 4.1288287e-15 6.8141245e-15    1.7798745    1.7833389    38.607006            0   -4859.8725  0.016218078   -4857.9676  0.032490916   -4858.0926   0.35499208   -4850.6966   0.67749471   -4852.5223            1    -4859.876 
12760   0.11851171  0.023797866 8.5906857e-15 2.7114136e-15 3.1914462e-15    1.7798745    1.7833389    38.597316            0   -4859.8725  0.016109958   -4858.0065  0.032275008   -4858.0926   0.35484592    -4850.726   0.67742125   -4852.5269            1    -4859.876 
12860   0.11679789  0.033517943 9.0910054e-15 2.4434272e-15 6.9232499e-15    1.7798745    1.7833389    38.587712            0   -4859.8725  0.016005836   -4858.0432  0.032067047   -4858.0926    0.3547038   -4850.7535   0.67734942   -4852.5313            1    -4859.876 
12960   0.13546418  0.058719495 9.7292819e-15 2.8726301e-15 1.0440423e-14    1.7798745    1.7833389    38.579216            0   -4859.8725  0.015902725   -4858.0788  0.031861071   -4858.0926   0.35457351   -4850.7799   0.67728586   -4852.5355            1    -4859.876 
13060   0.11305997 0.0064562993 9.6647017e-15 3.4613079e-15 4.2958703e-15    1.7798745    1.7833389    38.573354            0   -4859.8725   0.01586455   -4858.1183  0.031744151   -4858.0926   0.35449127    -4850.807   0.67724392   -4852.5397            1    -4859.876 
13160   0.13353129  0.055501099 8.8809867e-15 4.3782972e-15 5.7239777e-15    1.7798745    1.7833389    38.571687            0   -4859.8725  0.015866322   -4858.1706  0.031734144   -4858.0926   0.35448084   -4850.8361   0.67723793   -4852.5442            1    -4859.876 
13260   0.24874397   0.12890941 8.5664037e-15 4.8915088e-15 5.6593646e-15    1.7798745    1.7833389    38.571604            0   -4859.8725  0.015865683   -4858.2227   0.03173182   -4858.0926   0.35449182   -4850.8645   0.67724581   -4852.5485            1    -4859.876 
13360   0.30188522   0.15910206 1.4590601e-14 6.5706229e-15 9.5065379e-15    1.7798745    1.7833389     38.57068            0   -4859.8725  0.015865321   -4858.2699  0.031731006   -4858.0926   0.35449305    -4850.891   0.67724667   -4852.5524            1    -4859.876 
13460   0.10200243  0.034310954 9.470418e-15 2.2422746e-15 7.9633384e-15    1.7798745    1.7833389    38.568949            0   -4859.8725  0.015865397     -4858.31  0.031731133   -4858.0926     0.354484    -4850.915   0.67724031   -4852.5557            1    -4859.876 
13560   0.09938314  0.019808416 9.2446942e-15 3.2312234e-15 5.5876496e-15    1.7798745    1.7833389    38.567707            0   -4859.8725  0.015865284   -4858.3495  0.031730888   -4858.0926   0.35448226   -4850.9387   0.67723902    -4852.559            1    -4859.876 
13660  0.096390985 0.0086433113 1.0856005e-14 2.593333e-15 1.3310788e-14    1.7798745    1.7833389    38.566096            0   -4859.8725  0.015865282   -4858.3923   0.03173086   -4858.0926   0.35447954    -4850.965     0.677237   -4852.5625            1    -4859.876 
13760  0.093701888  0.013853841 2.2926406e-14 3.1890486e-15 1.6898952e-14    1.7798745    1.7833389    38.564571            0   -4859.8725  0.015865352   -4858.4287   0.03173098   -4858.0926   0.35447819   -4850.9883   0.67723586   -4852.5655            1    -4859.876 
13860   0.12213167  0.048201725 1.083449e-14 4.3212315e-15 4.1636659e-15    1.7798745    1.7833389    38.562528            0   -4859.8725  0.015865646   -4858.4652  0.031731546   -4858.0926   0.35447439   -4851.0123    0.6772329   -4852.5684            1    -4859.876 
13960   0.08810142  0.012559712 9.6770457e-15 2.9064341e-15 5.9454822e-15    1.7798745    1.7833389    38.560563            0   -4859.8725  0.015865957    -4858.499  0.031732149   -4858.0926   0.35447535   -4851.0359   0.67723305    -4852.571            1    -4859.876 
14060  0.085104136 0.0082349601 1.1575572e-14 3.1836465e-15 9.9714513e-15    1.7798745    1.7833389    38.557535            0   -4859.8725  0.015866703   -4858.5338  0.031733619   -4858.0926   0.35447288   -4851.0613   0.67723046   -4852.5736            1    -4859.876 
14160   0.08235311  0.010947757 1.1208318e-14 3.1248729e-15 7.4431662e-15    1.7798745    1.7833389    38.553719            0   -4859.8725  0.015867845   -4858.5641  0.031735888   -4858.0926   0.35446925   -4851.0849   0.67722658   -4852.5756            1    -4859.876 
14260  0.087202577  0.011000352 1.0015258e-14 5.5256894e-15 6.7537934e-15    1.7798745    1.7833389    38.547599            0   -4859.8725  0.015869942   -4858.5945  0.031740064   -4858.0926   0.35446074   -4851.1109   0.67721823   -4852.5773            1    -4859.876 
14360  0.095925498  0.026491814 9.5483069e-15 3.248161e-15 4.0009689e-15    1.7798745    1.7833389    38.539554            0   -4859.8725  0.015872888   -4858.6213  0.031745942   -4858.0926   0.35445288   -4851.1365   0.67720957   -4852.5781            1    -4859.876 
14460   0.10476583   0.03680246 1.287763e-14 6.8792671e-15 1.3470608e-14    1.7798745    1.7833389    38.527357            0   -4859.8725  0.015877538   -4858.6492  0.031755228   -4858.0926   0.35444159   -4851.1659   0.67719749   -4852.5782            1    -4859.876 
14560     0.111347  0.041165965 1.0572138e-14 7.3822668e-15 8.896095e-15    1.7798745    1.7833389    38.511581            0   -4859.8725  0.015883752   -4858.6709  0.031767645   -4858.0926   0.35441805     -4851.19    0.6771742   -4852.5772            1    -4859.876 
14660    0.1469389  0.073084556 1.1477667e-14 6.9104624e-15 4.4970725e-15    1.7798745    1.7833389    38.498997            0   -4859.8725  0.015888686   -4858.6904  0.031777502   -4858.0926   0.35445218   -4851.2086   0.67719781   -4852.5754            1    -4859.876 
14760  0.097919154  0.012285005 1.1764492e-14 6.7031178e-15 8.9650536e-15    1.7798745    1.7833389    38.496014            0   -4859.8725  0.015889653   -4858.7105  0.031779426   -4858.0926   0.35450219   -4851.2385   0.67724329    -4852.576            1    -4859.876 
14860    1.2806383   0.59705355 1.1590837e-14 7.5111873e-15 8.4439839e-15    1.7798745    1.7833389    38.482993            0   -4859.8725  0.015894799   -4858.7281   0.03178971   -4858.0926   0.35439013   -4852.2629   0.67716801   -4852.5776            1    -4859.876 
14960   0.18534926 0.0087088423 1.0676045e-14 2.7768163e-15 1.411348e-14    1.7798745    1.7833389    38.480079            0   -4859.8725  0.015895764   -4858.7463  0.031791632   -4858.0926   0.35452259   -4853.0587   0.67725748   -4852.5774            1    -4859.876 
15060    0.1967553  0.042425421 9.0847009e-15 3.7953865e-15  6.78976e-15    1.7798745    1.7833389     38.48048            0   -4859.8725  0.015895387   -4858.7625   0.03179087   -4858.0926   0.35453272   -4853.2061   0.67726767   -4852.5802            1    -4859.876 
15160   0.18404225  0.021356152 9.3766953e-15 9.9345398e-15  8.83186e-15    1.7798745    1.7833389    38.480321            0   -4859.8725  0.015895251   -4858.7778  0.031790592   -4858.0926   0.35452881   -4853.3537   0.67726586    -4852.583            1    -4859.876 
15260   0.22309501  0.071269748 1.0480586e-14 1.0644935e-14 5.6527758e-15    1.7798745    1.7833389    38.480093            0   -4859.8725  0.015895157    -4858.792  0.031790399   -4858.0926   0.35452473   -4853.4969   0.67726357   -4852.5857            1    -4859.876 
15360   0.18119182  0.022894254 9.5345385e-15 7.5469274e-15 6.0312561e-15    1.7798745    1.7833389    38.480112            0   -4859.8725  0.015894971   -4858.8054   0.03179002   -4858.0926   0.35452659   -4853.6397   0.67726415   -4852.5882            1    -4859.876 
15460   0.19590613   0.04981163 1.3143939e-14 4.132164e-15 6.5147641e-15    1.7798745    1.7833389    38.480114            0   -4859.8725  0.015894799    -4858.818  0.031789671   -4858.0926   0.35453001   -4853.7819   0.67726554   -4852.5905            1    -4859.876 
15560   0.21925322  0.073345455 9.233677e-15 2.6547088e-15 5.5945217e-15    1.7798745    1.7833389    38.479864            0   -4859.8725  0.015894734   -4858.8303  0.031789537   -4858.0926   0.35453085   -4853.9284   0.67726571   -4852.5928            1    -4859.876 
15660    0.1741519  0.013075633 9.2416476e-15 1.8603658e-15  6.76445e-15    1.7798745    1.7833389    38.479188            0   -4859.8725  0.015894863    -4858.841   0.03178979   -4858.0926    0.3545252   -4854.0671   0.67726276   -4852.5948            1    -4859.876 
15760   0.17144412 0.0060218594 9.2321751e-15 2.9805854e-15 6.4070945e-15    1.7798745    1.7833389    38.478857            0   -4859.8725  0.015894852   -4858.8513  0.031789765   -4858.0926   0.35452605   -4854.2091   0.67726309   -4852.5967            1    -4859.876 
15860    0.2100349  0.066254841 1.0341885e-14 2.967194e-15 7.2593566e-15    1.7798745    1.7833389     38.47867            0   -4859.8725  0.015894783   -4858.8613  0.031789623   -4858.0926   0.35453034    -4854.357   0.67726542   -4852.5986            1    -4859.876 
15960   0.16871112    0.0321422 9.9952169e-15 3.3455988e-15 7.1730042e-15    1.7798745    1.7833389    38.478115            0   -4859.8725  0.015894882   -4858.8699  0.031789819   -4858.0926   0.35452636   -4854.4947   0.67726343   -4852.6003            1    -4859.876 
16060   0.16704048  0.036771087 9.3512065e-15 3.6793123e-15 7.8288561e-15    1.7798745    1.7833389    38.477849            0   -4859.8725  0.015894872   -4858.8777  0.031789795   -4858.0926   0.35452656   -4854.6264   0.67726359   -4852.6018            1    -4859.876 
16160   0.16505511  0.010377575 1.0517977e-14 1.5107346e-15 7.4282601e-15    1.7798745    1.7833389    38.477646            0   -4859.8725  0.015894839    -4858.885  0.031789726   -4858.0926   0.35452653   -4854.7597   0.67726345   -4852.6033            1    -4859.876 
16260   0.16278903 0.0049858387 1.1590617e-14 2.4009918e-15 7.7891394e-15    1.7798745    1.7833389    38.477467            0   -4859.8725  0.015894797   -4858.8919   0.03178964   -4858.0926   0.35452652   -4854.8941    0.6772634   -4852.6047            1    -4859.876 
16360   0.16045428  0.033549535 9.8139121e-15 1.9652607e-15 4.0085913e-15    1.7798745    1.7833389    38.477339            0   -4859.8725  0.015894745   -4858.8981  0.031789533   -4858.0926   0.35452635   -4855.0204   0.67726318    -4852.606            1    -4859.876 
16460   0.15794396  0.068858727 1.8943893e-14 4.4153898e-15 7.8744309e-15    1.7798745    1.7833389    38.477236            0   -4859.8725  0.015894683    -4858.904  0.031789407   -4858.0926   0.35452612   -4855.1478   0.67726291    -4852.607            1    -4859.876 
16560   0.15551282  0.004481368 9.8197322e-15 3.9894396e-15 7.7242326e-15    1.7798745    1.7833389    38.477081            0   -4859.8725  0.015894652   -4858.9091  0.031789343   -4858.0926   0.35452656   -4855.2658   0.67726347   -4852.6083            1    -4859.876 
16660   0.15301801  0.069755633 1.3062246e-14 1.3615364e-15 8.3068298e-15    1.7798745    1.7833389    38.476946            0   -4859.8725  0.015894614   -4858.9139  0.031789266   -4858.0926   0.35452701   -4855.3832   0.67726401   -4852.6092            1    -4859.876 
16760   0.15059601  0.024295157 1.7272915e-14  4.60414e-15 5.431204e-15    1.7798745    1.7833389    38.476962            0   -4859.8725   0.01589452   -4858.9183  0.031789076   -4858.0926   0.35452638   -4855.4945    0.6772633   -4852.6103            1    -4859.876 
16860   0.14825939 0.0048468707 1.3087037e-14 3.1687613e-15 6.4852084e-15    1.7798745    1.7833389    38.476912            0   -4859.8725   0.01589446   -4858.9221  0.031788953   -4858.0926   0.35452657   -4855.5999   0.67726354   -4852.6112            1    -4859.876 
16960   0.14587137  0.026488019 1.7515948e-14 3.5785754e-15 9.5532745e-15    1.7798745    1.7833389    38.476936            0   -4859.8725   0.01589437   -4858.9258  0.031788772   -4858.0926   0.35452639   -4855.7049   0.67726335    -4852.612            1    -4859.876 
17060   0.14344618  0.016190019 1.3254107e-14 2.7994699e-15 5.8636281e-15    1.7798745    1.7833389    38.476939            0   -4859.8725   0.01589429   -4858.9292  0.031788612   -4858.0926   0.35452671    -4855.808   0.67726372   -4852.6128            1    -4859.876 
17160   0.14103773  0.021088709 1.0615455e-14 2.7914739e-15 5.6137667e-15    1.7798745    1.7833389     38.47704            0   -4859.8725  0.015894176   -4858.9323  0.031788382   -4858.0926   0.35452651   -4855.9057   0.67726353   -4852.6135            1    -4859.876 
17260   0.13858491  0.015022346 8.8669359e-15 3.2391643e-15 6.9042134e-15    1.7798745    1.7833389    38.477123            0   -4859.8725  0.015894072   -4858.9351  0.031788173   -4858.0926   0.35452677   -4855.9995   0.67726384   -4852.6142            1    -4859.876 
17360   0.13601628   0.02198959 8.7892498e-15 3.0703677e-15 6.7540963e-15    1.7798745    1.7833389    38.477293            0   -4859.8725  0.015893935   -4858.9376  0.031787897   -4858.0926   0.35452651   -4856.0906   0.67726362   -4852.6148            1    -4859.876 
17460   0.13334881  0.016235387 1.017031e-14 3.1168383e-15 8.7738026e-15    1.7798745    1.7833389    38.477453            0   -4859.8725  0.015893805     -4858.94  0.031787636   -4858.0926   0.35452648   -4856.1774   0.67726366   -4852.6153            1    -4859.876 
17560    0.1303503  0.023169132 1.8220149e-14 3.3092407e-15 4.4405939e-15    1.7798745    1.7833389    38.477616            0   -4859.8725  0.015893673   -4858.9422  0.031787371   -4858.0926    0.3545266   -4856.2658   0.67726387   -4852.6159            1    -4859.876 
17660   0.12724313  0.056006429 8.4508489e-15 4.529513e-15 8.7461448e-15    1.7798745    1.7833389    38.477787            0   -4859.8725  0.015893542   -4858.9443  0.031787108   -4858.0926   0.35452662   -4856.3482   0.67726398   -4852.6163            1    -4859.876 
17760   0.12840662  0.063455919 4.0788146e-14 1.4631824e-14 4.1589748e-14    1.7798745    1.7833389    38.478072            0   -4859.8725  0.015893364   -4858.9461  0.031786752   -4858.0926   0.35452559    -4856.428   0.67726308   -4852.6167            1    -4859.876 
17860   0.17880822  0.088290385 3.8067511e-14 1.5948757e-14 2.4471987e-14    1.7798745    1.7833389    38.478143            0   -4859.8725   0.01589328   -4858.9478  0.031786583   -4858.0926   0.35452634   -4856.5013   0.67726387    -4852.617            1    -4859.876 
17960   0.11686736   0.05547043 1.1918077e-14 3.143784e-15 6.0152486e-15    1.7798745    1.7833389     38.47834            0   -4859.8725  0.015893144   -4858.9494  0.031786311   -4858.0926   0.35452587   -4856.5719   0.67726351   -4852.6176            1    -4859.876 
18060   0.11325476  0.010370419 9.5594495e-15 2.955909e-15 5.5836542e-15    1.7798745    1.7833389    38.478546            0   -4859.8725  0.015893009   -4858.9508  0.031786039   -4858.0926   0.35452518   -4856.6363   0.67726295   -4852.6181            1    -4859.876 
18160    0.1091784  0.022500993 1.342359e-14 3.6548284e-15 8.9046666e-15    1.7798745    1.7833389    38.478682            0   -4859.8725  0.015892899   -4858.9522  0.031785819   -4858.0926   0.35452513   -4856.7029   0.67726298   -4852.6184            1    -4859.876 
18260   0.10557986 0.0027920356 1.2449584e-14 2.7418129e-15 9.1604543e-15    1.7798745    1.7833389    38.478825            0   -4859.8725  0.015892796   -4858.9533   0.03178561   -4858.0926   0.35452476    -4856.757   0.67726271   -4852.6187            1    -4859.876 
18360   0.10154986   0.01742142 1.1326947e-14 7.2008178e-15 1.4758805e-14    1.7798745    1.7833389    38.478967            0   -4859.8725  0.015892689   -4858.9545  0.031785397   -4858.0926   0.35452442   -4856.8132   0.67726246    -4852.619            1    -4859.876 
18460  0.097658368  0.036260126 9.6711305e-15 8.2845494e-15 1.3207375e-14    1.7798745    1.7833389    38.479093            0   -4859.8725  0.015892592   -4858.9555  0.031785202   -4858.0926   0.35452409   -4856.8635   0.67726222   -4852.6192            1    -4859.876 
18560  0.094064626 0.0077533904 1.2052141e-14 8.9080108e-15 1.1530179e-14    1.7798745    1.7833389    38.479168            0   -4859.8725  0.015892522   -4858.9563   0.03178506   -4858.0926   0.35452409   -4856.9069   0.67726228   -4852.6195            1    -4859.876 
18660  0.090354411  0.042766952 1.0415972e-14 6.8465287e-15 6.6686958e-15    1.7798745    1.7833389    38.479223            0   -4859.8725  0.015892459   -4858.9572  0.031784934   -4858.0926   0.35452425   -4856.9489   0.67726245   -4852.6197            1    -4859.876 
18760   0.08670669   0.01459666 9.6355276e-15 1.0379365e-14 9.2371587e-15    1.7798745    1.7833389    38.479347            0   -4859.8725  0.015892369   -4858.9579  0.031784754   -4858.0926   0.35452372   -4856.9876   0.67726203   -4852.6199            1    -4859.876 
18860  0.083202122  0.021212747 1.006441e-14 1.182608e-14 1.0578516e-14    1.7798745    1.7833389    38.479426            0   -4859.8725    0.0158923   -4858.9586  0.031784615   -4858.0926   0.35452354   -4857.0225   0.67726191   -4852.6201            1    -4859.876 
18960   0.07980917 0.0020640824 1.0353135e-14 5.0333837e-15 1.0856671e-14    1.7798745    1.7833389     38.47948            0   -4859.8725  0.015892244   -4858.9592  0.031784502   -4858.0926   0.35452353   -4857.0543   0.67726194   -4852.6203            1    -4859.876 
19060  0.076192371  0.016394251 1.4364194e-14 4.0695258e-15 7.1055934e-15    1.7798745    1.7833389    38.479559            0   -4859.8725  0.015892175   -4858.9598  0.031784364   -4858.0926    0.3545233   -4857.0863   0.67726177   -4852.6204            1    -4859.876 
19160  0.091995828  0.045229108 1.1577089e-14 8.7098171e-15 9.9331327e-15    1.7798745    1.7833389    38.479639            0   -4859.8725  0.015892109   -4858.9604  0.031784231   -4858.0926     0.354523   -4857.1139   0.67726155   -4852.6205            1    -4859.876 
19260  0.069795635 0.0031141023 1.4038376e-14 9.0760151e-15 9.930699e-15    1.7798745    1.7833389     38.47966            0   -4859.8725   0.01589207   -4858.9609  0.031784152   -4858.0926   0.35452317   -4857.1381   0.67726171   -4852.6207            1    -4859.876 
19360  0.066645481  0.010637696 9.0191757e-15 5.3337056e-15 1.2536231e-14    1.7798745    1.7833389    38.479702            0   -4859.8725  0.015892022   -4858.9613  0.031784056   -4858.0926   0.35452316   -4857.1615   0.67726173   -4852.6208            1    -4859.876 
19460   0.06344737 0.0038965097 1.1326017e-14 8.7437956e-15 7.7287442e-15    1.7798745    1.7833389    38.479756            0   -4859.8725  0.015891968   -4858.9617  0.031783948   -4858.0926   0.35452302   -4857.1839   0.67726163    -4852.621            1    -4859.876 
19560  0.060624023 0.0089256945 9.8186455e-15 5.7003347e-15 1.0397205e-14    1.7798745    1.7833389    38.479794            0   -4859.8725  0.015891926   -4858.9621  0.031783862   -4858.0926   0.35452296   -4857.2027   0.67726161   -4852.6211            1    -4859.876 
19660   0.05791618 0.0040631966 8.5639777e-15 9.6196186e-15 1.0830982e-14    1.7798745    1.7833389    38.479837            0   -4859.8725  0.015891883   -4858.9625  0.031783776   -4858.0926   0.35452285   -4857.2197   0.67726154   -4852.6212            1    -4859.876 
19760  0.055333148 0.0082973699 1.091985e-14 3.4311035e-15 8.9985148e-15    1.7798745    1.7833389     38.47987            0   -4859.8725  0.015891845   -4858.9628    0.0317837   -4858.0926   0.35452281   -4857.2351   0.67726151   -4852.6213            1    -4859.876 
19860   0.05284637  0.019980598 9.2954661e-15 2.813448e-15 1.0714922e-14    1.7798745    1.7833389    38.479924            0   -4859.8725  0.015891799    -4858.963  0.031783608   -4858.0926   0.35452255   -4857.2492   0.67726132   -4852.6213            1    -4859.876 
19960  0.050475453 0.0050081596 8.8516709e-15 5.9429304e-15 1.0825113e-14    1.7798745    1.7833389    38.479937            0   -4859.8725  0.015891771   -4858.9633  0.031783552   -4858.0926   0.35452265    -4857.262   0.67726142   -4852.6214            1    -4859.876 
20060  0.048160685 0.0012492564 8.6902259e-15 2.9936666e-15 8.0863692e-15    1.7798745    1.7833389     38.47997            0   -4859.8725  0.015891735   -4858.9635  0.031783479   -4858.0926   0.35452257   -4857.2738   0.67726136   -4852.6215            1    -4859.876 
20160  0.046000531  0.012564572 8.800223e-15 3.1246278e-15 7.0056889e-15    1.7798745    1.7833389    38.479989            0   -4859.8725  0.015891706   -4858.9638  0.031783421   -4858.0926   0.35452258   -4857.2844   0.67726139   -4852.6215            1    -4859.876 
20260  0.043936698 0.0087658472 1.0940048e-14 3.5947537e-15 7.0348374e-15    1.7798745    1.7833389    38.480018            0   -4859.8725  0.015891673   -4858.9639  0.031783355   -4858.0926    0.3545225   -4857.2939   0.67726134   -4852.6216            1    -4859.876 
20360  0.041869108  0.004275682 1.0617582e-14 4.8201041e-15 9.1818348e-15    1.7798745    1.7833389    38.480052            0   -4859.8725  0.015891638   -4858.9641  0.031783284   -4858.0926   0.35452236    -4857.303   0.67726124   -4852.6217            1    -4859.876 
20460   0.03996319 0.0019538498 1.0101617e-14 3.0072103e-15 7.2783176e-15    1.7798745    1.7833389    38.480071            0   -4859.8725  0.015891611   -4858.9643  0.031783229   -4858.0926   0.35452235    -4857.311   0.67726124   -4852.6217            1    -4859.876 
20560  0.038099396  0.013268331 1.0329915e-14 6.4773252e-15 7.982672e-15    1.7798745    1.7833389    38.480085            0   -4859.8725  0.015891586   -4858.9645  0.031783179   -4858.0926   0.35452238   -4857.3184   0.67726127   -4852.6217            1    -4859.876 
20660  0.036213519 0.0076799911 1.277115e-14 5.1847407e-15 7.2762103e-15    1.7798745    1.7833389    38.480122            0   -4859.8725  0.015891551   -4858.9646  0.031783109   -4858.0926   0.35452219   -4857.3256   0.67726113   -4852.6218            1    -4859.876 
20760  0.034557716 0.0044427498 9.9055904e-15 3.4271693e-15 7.4558762e-15    1.7798745    1.7833389    38.480132            0   -4859.8725   0.01589153   -4858.9647  0.031783066   -4858.0926   0.35452223   -4857.3315   0.67726117   -4852.6218            1    -4859.876 
20860  0.032971898 0.0088242747 1.2351234e-14 3.9522927e-15 6.9786957e-15    1.7798745    1.7833389    38.480147            0   -4859.8725  0.015891507   -4858.9649  0.031783021   -4858.0926   0.35452222    -4857.337   0.67726117   -4852.6219            1    -4859.876 
20960  0.031419867  0.011834228 1.8134119e-14 7.2306921e-15 5.4921159e-15    1.7798745    1.7833389    38.480163            0   -4859.8725  0.015891484    -4858.965  0.031782975   -4858.0926    0.3545222    -4857.342   0.67726117   -4852.6219            1    -4859.876 
21060   0.02995496  0.012388142 1.1865647e-14 5.9068181e-15 1.2590728e-14    1.7798745    1.7833389    38.480179            0   -4859.8725  0.015891462   -4858.9651  0.031782931   -4858.0926   0.35452217   -4857.3466   0.67726115   -4852.6219            1    -4859.876 
21160  0.028461058 0.0085483644 1.0830515e-14 6.1525358e-15 1.7688018e-14    1.7798745    1.7833389    38.480199            0   -4859.8725  0.015891439   -4858.9652  0.031782884   -4858.0926    0.3545221    -4857.351   0.67726111    -4852.622            1    -4859.876 
21260   0.02709195 0.0020474347 1.5634495e-14 1.2732943e-14 1.3198661e-14    1.7798745    1.7833389    38.480219            0   -4859.8725  0.015891416   -4858.9653  0.031782838   -4858.0926   0.35452203   -4857.3549   0.67726105    -4852.622            1    -4859.876 
21360  0.025751317 0.0061440556 2.2015189e-14 1.2581271e-14 1.5397973e-14    1.7798745    1.7833389     38.48023            0   -4859.8725  0.015891397   -4858.9653    0.0317828   -4858.0926   0.35452202   -4857.3584   0.67726106    -4852.622            1    -4859.876 
21460  0.024525796  0.010975133 1.1487464e-14 7.6734752e-15 1.4398967e-14    1.7798745    1.7833389    38.480241            0   -4859.8725   0.01589138   -4858.9654  0.031782765   -4858.0926   0.35452202   -4857.3615   0.67726107    -4852.622            1    -4859.876 
21560  0.029425073  0.014483633 1.6660988e-14 6.5240689e-15 1.7589109e-14    1.7798745    1.7833389    38.480251            0   -4859.8725  0.015891363   -4858.9655  0.031782731   -4858.0926   0.35452201   -4857.3643   0.67726107    -4852.622            1    -4859.876 
21660  0.022292539 0.0045755409 1.3564031e-14 3.4395593e-15 6.8013196e-15    1.7798745    1.7833389    38.480276            0   -4859.8725   0.01589134   -4858.9655  0.031782686   -4858.0926   0.35452186   -4857.3668   0.67726095   -4852.6221            1    -4859.876 
21760  0.021188918 0.0081147664 9.7015886e-15 7.4636269e-15 7.1062439e-15    1.7798745    1.7833389    38.480291            0   -4859.8725  0.015891322   -4858.9656  0.031782649   -4858.0926   0.35452181   -4857.3692   0.67726092   -4852.6221            1    -4859.876 
21860  0.020189688 0.0040577496 1.1257201e-14 6.4349157e-15 1.1295275e-14    1.7798745    1.7833389    38.480299            0   -4859.8725  0.015891307   -4858.9656  0.031782619   -4858.0926   0.35452181   -4857.3713   0.67726092   -4852.6221            1    -4859.876 
21960  0.019232757 0.0030928442 1.3258233e-14 3.912439e-15 6.852062e-15    1.7798745    1.7833389    38.480308            0   -4859.8725  0.015891292   -4858.9657  0.031782589   -4858.0926   0.35452179   -4857.3732   0.67726092   -4852.6221            1    -4859.876 
22060  0.018336376 0.00047608961 1.7054658e-14 6.8957271e-15 7.0071698e-15    1.7798745    1.7833389    38.480316            0   -4859.8725  0.015891279   -4858.9657  0.031782562   -4858.0926   0.35452178   -4857.3749   0.67726092   -4852.6221            1    -4859.876 
22160  0.017459081 0.00045331559 1.2962048e-14 8.1799565e-15 6.6477935e-15    1.7798745    1.7833389    38.480325            0   -4859.8725  0.015891265   -4858.9658  0.031782534   -4858.0926   0.35452177   -4857.3765   0.67726091   -4852.6222            1    -4859.876 
22260  0.016609464 0.0067672835 1.0759999e-14 4.4391796e-15 7.0445905e-15    1.7798745    1.7833389    38.480329            0   -4859.8725  0.015891253   -4858.9658   0.03178251   -4858.0926   0.35452179   -4857.3779   0.67726093   -4852.6222            1    -4859.876 
22360  0.015846409 0.00083211637 1.1678501e-14 5.8517866e-15 1.1901546e-14    1.7798745    1.7833389    38.480343            0   -4859.8725  0.015891238   -4858.9658   0.03178248   -4858.0926   0.35452172   -4857.3792   0.67726088   -4852.6222            1    -4859.876 
22460  0.015047915 0.0015463107 1.8488192e-14 1.0624525e-14 1.3432953e-14    1.7798745    1.7833389     38.48035            0   -4859.8725  0.015891225   -4858.9659  0.031782455   -4858.0926   0.35452171   -4857.3804   0.67726088   -4852.6222            1    -4859.876 
22560  0.014337373  0.004719501 9.7212506e-15 1.2951099e-14 1.0724549e-14    1.7798745    1.7833389    38.480362            0   -4859.8725  0.015891212   -4858.9659  0.031782427   -4858.0926   0.35452165   -4857.3815   0.67726084   -4852.6222            1    -4859.876 
22660  0.013667134 0.0028120472 8.7383123e-15 1.4588889e-14 6.9369403e-15    1.7798745    1.7833389    38.480368            0   -4859.8725  0.015891201   -4858.9659  0.031782406   -4858.0926   0.35452165   -4857.3824   0.67726084   -4852.6222            1    -4859.876 
22760  0.013020034 0.0052971019 1.4590251e-14 1.1475402e-14 6.7678657e-15    1.7798745    1.7833389    38.480369            0   -4859.8725  0.015891193   -4858.9659  0.031782389   -4858.0926   0.35452168   -4857.3833   0.67726087   -4852.6222            1    -4859.876 
22860  0.012409492 0.0017035148 1.0488453e-14 1.1497748e-14 7.7022222e-15    1.7798745    1.7833389    38.480378            0   -4859.8725  0.015891181    -4858.966  0.031782366   -4858.0926   0.35452164   -4857.3841   0.67726084   -4852.6222            1    -4859.876 
22960  0.011824098 0.0010641792 1.0479618e-14 9.4882957e-15 7.7500829e-15    1.7798745    1.7833389    38.480385            0   -4859.8725  0.015891171    -4858.966  0.031782345   -4858.0926   0.35452162   -4857.3848   0.67726083   -4852.6222            1    -4859.876 
23060  0.011248112 0.00048221621 1.7761512e-14 9.6622806e-15 1.5910357e-14    1.7798745    1.7833389    38.480392            0   -4859.8725  0.015891161    -4858.966  0.031782325   -4858.0926    0.3545216   -4857.3855   0.67726082   -4852.6222            1    -4859.876 
23160  0.010722252 0.00045394681 8.6432181e-15 7.158298e-15 1.5164104e-14    1.7798745    1.7833389    38.480398            0   -4859.8725  0.015891152    -4858.966  0.031782307   -4858.0926   0.35452158    -4857.386   0.67726081   -4852.6222            1    -4859.876 
23260  0.010228099  0.002104879 1.3560335e-14 4.2192214e-15 8.008638e-15    1.7798745    1.7833389    38.480405            0   -4859.8725  0.015891143    -4858.966  0.031782289   -4858.0926   0.35452156   -4857.3866   0.67726079   -4852.6222            1    -4859.876 
23313 0.0099992702 0.0033972708 1.3172276e-14 1.2106662e-15 8.1848482e-15    1.7798745    1.7833389    38.480403            0   -4859.8725  0.015891141    -4858.966  0.031782284   -4858.0926   0.35452159   -4857.3868   0.67726081   -4852.6222            1    -4859.876 
