LAMMPS (3 Mar 2020)
Running on 4 partitions of processors
Step MaxReplicaForce MaxAtomForce GradV0 GradV1 GradVc EBF EBR RDT RD1 PE1 RD2 PE2 ... RDN PEN
0    220.09523    95.357325 3.2056197e-06    155.26272    155.26272    122.01972            0    4.0932291            0   -1024.5087   0.33333333   -1010.9354   0.66666667   -997.49415            1   -902.48902 
100    1.5605665    1.0744874 1.2213608e-09   0.28266214   0.71601497    6.1171523   0.70282525    5.1156701            0   -1024.5087   0.33827608   -1019.8822   0.67561591   -1018.3916            1   -1019.0944 
200   0.27855735   0.12031806 5.1233096e-12 0.00033900193   0.95195978    6.2000124     5.873366    4.0898945            0   -1024.5087   0.33595119   -1021.3444   0.66930846   -1018.3087            1   -1024.1821 
300   0.20252383  0.015848915 9.839929e-15 2.3996638e-07   0.89163606    6.1920313    5.8653874    4.0896708            0   -1024.5087   0.33334043   -1021.5966   0.66667903   -1018.3167            1   -1024.1821 
400    0.2083693  0.016445079 3.0043488e-15 1.6011532e-10   0.84998516    6.1753924    5.8487485     4.091021            0   -1024.5087   0.33341172   -1021.8264   0.66673128   -1018.3333            1   -1024.1821 
500   0.20271096  0.043343934 6.5173171e-15 1.378972e-13   0.80501374    6.1607974    5.8341535    4.0910588            0   -1024.5087   0.33331963   -1022.0541   0.66665874   -1018.3479            1   -1024.1821 
600   0.20988575  0.019415977 8.7788636e-15 5.2152842e-15   0.75165259    6.1465708    5.8199269    4.0897963            0   -1024.5087   0.33331911   -1022.2875   0.66665317   -1018.3622            1   -1024.1821 
700    0.2263887   0.12491806 4.8431889e-15 7.406206e-15   0.72102413    6.1348277    5.8081838    4.0898611            0   -1024.5087   0.33333429   -1022.5499   0.66666899   -1018.3739            1   -1024.1821 
800   0.22333528  0.045692419 2.4411597e-15 6.5340638e-15   0.70450206    6.1225135    5.7958696    4.0906245            0   -1024.5087    0.3333089   -1022.8464   0.66664733   -1018.3862            1   -1024.1821 
900   0.21160968  0.012165022 2.513154e-15 7.5681847e-15   0.92680217     6.093565    5.7669211    4.1008073            0   -1024.5087   0.33327879   -1023.1023   0.66661902   -1018.4152            1   -1024.1821 
1000   0.34735383   0.20288561 2.7984999e-15 1.4943688e-14    1.0747007    6.0680578    5.7414139    4.1053981            0   -1024.5087   0.33324068   -1023.3415   0.66659234   -1018.4407            1   -1024.1821 
1100   0.18152909   0.02099446 2.4396898e-15 7.5156438e-15    1.0020032    6.0412927    5.7146489    4.1084046            0   -1024.5087   0.33330495   -1023.5275   0.66664234   -1018.4674            1   -1024.1821 
1200   0.16430378  0.027590377  4.41246e-15 1.0413128e-14   0.87754699    6.0191862    5.6925424    4.1089894            0   -1024.5087   0.33333183   -1023.7088   0.66666522   -1018.4896            1   -1024.1821 
1300   0.14766983  0.030793999 9.7672443e-15 6.3624484e-15   0.75757357    6.0031576    5.6765137    4.1089402            0   -1024.5087   0.33333634   -1023.8533   0.66666892   -1018.5056            1   -1024.1821 
1400   0.13224052  0.033642017 4.1716547e-15 6.0275629e-15   0.65269614    5.9915414    5.6648975    4.1087251            0   -1024.5087   0.33333818   -1023.9672   0.66667055   -1018.5172            1   -1024.1821 
1500   0.11913263  0.010143003 2.576489e-15 5.3680317e-15   0.56132774    5.9829008    5.6562569    4.1084737            0   -1024.5087   0.33333774    -1024.059   0.66667029   -1018.5258            1   -1024.1821 
1600     0.109483 0.0058002753 4.1385194e-15 4.534456e-15   0.48552743    5.9766372    5.6499933    4.1081911            0   -1024.5087   0.33333799   -1024.1331   0.66667038   -1018.5321            1   -1024.1821 
1700   0.10568186 0.0079698092 2.5456947e-15 5.4738373e-15   0.42010137    5.9719238    5.6452799    4.1079252            0   -1024.5087   0.33333617   -1024.1985   0.66666896   -1018.5368            1   -1024.1821 
1800   0.10690261  0.017118227 2.5473302e-15 6.6632639e-15   0.36523107    5.9685007    5.6418568    4.1076118            0   -1024.5087   0.33333108    -1024.261   0.66666502   -1018.5402            1   -1024.1821 
1900   0.10066376 0.0088995389 2.4608726e-15 4.4469318e-15   0.31589676    5.9657674    5.6391235    4.1072948            0   -1024.5087   0.33333532   -1024.3247    0.6666682    -1018.543            1   -1024.1821 
2000  0.088266425  0.040216027 1.2003284e-15 5.5037031e-15   0.27513456     5.963789    5.6371451     4.107075            0   -1024.5087   0.33333604   -1024.3769   0.66666876    -1018.545            1   -1024.1821 
2100  0.075388891  0.012378888 1.2044329e-15 6.3793914e-15   0.23917923    5.9622676    5.6356238    4.1068947            0   -1024.5087   0.33333589   -1024.4144   0.66666868   -1018.5465            1   -1024.1821 
2200  0.063505407  0.014012069 2.4698174e-15 6.6444388e-15    0.2074475    5.9611045    5.6344606    4.1067358            0   -1024.5087   0.33333549   -1024.4424   0.66666839   -1018.5476            1   -1024.1821 
2300  0.053761757  0.014523626 1.2851761e-15 5.603665e-15   0.18095907    5.9602589     5.633615    4.1065853            0   -1024.5087   0.33333532   -1024.4616    0.6666682   -1018.5485            1   -1024.1821 
2400  0.044775331  0.016684781 4.1374024e-15 8.7891392e-15   0.15686269     5.959563    5.6329192    4.1064417            0   -1024.5087   0.33333506   -1024.4763   0.66666799   -1018.5492            1   -1024.1821 
2500  0.037838718  0.001938311 3.4275888e-15 5.4036388e-15   0.13819444    5.9590715    5.6324276    4.1063258            0   -1024.5087   0.33333483   -1024.4857   0.66666783   -1018.5497            1   -1024.1821 
2600  0.031747315 0.0050880231 9.2433255e-16 9.348703e-15   0.12097021    5.9586881    5.6320442    4.1062017            0   -1024.5087   0.33333471   -1024.4926   0.66666776   -1018.5501            1   -1024.1821 
2700  0.026445408 0.0032014742 2.7661829e-15 5.5934128e-15   0.10559794    5.9583838    5.6317399     4.106103            0   -1024.5087   0.33333446   -1024.4975   0.66666755   -1018.5504            1   -1024.1821 
2800  0.022080338 0.0023104519 4.212503e-15 6.3850495e-15  0.092492652    5.9581551    5.6315112    4.1060053            0   -1024.5087   0.33333444    -1024.501   0.66666754   -1018.5506            1   -1024.1821 
2900  0.020830891  0.012537741 3.8403126e-15 7.2623987e-15  0.080915023    5.9579837    5.6313398    4.1059213            0   -1024.5087   0.33333432   -1024.5033   0.66666742   -1018.5508            1   -1024.1821 
3000  0.015458539 0.00079295316 2.0158771e-15 4.3055672e-15  0.071315445     5.957851    5.6312072    4.1058551            0   -1024.5087   0.33333416   -1024.5049   0.66666732   -1018.5509            1   -1024.1821 
3100   0.01305157 0.0053504217 2.0158771e-15 5.2294794e-15  0.062827563    5.9577537    5.6311098    4.1057989            0   -1024.5087   0.33333402    -1024.506    0.6666672    -1018.551            1   -1024.1821 
3200  0.011035953 0.00062089853  2.01954e-15 5.5779937e-15  0.055835911    5.9576766    5.6310327    4.1057504            0   -1024.5087   0.33333395   -1024.5068   0.66666715   -1018.5511            1   -1024.1821 
3259 0.0099918276 0.0045722537  2.01954e-15 6.274285e-15  0.052223171    5.9576407    5.6309968     4.105723            0   -1024.5087   0.33333395   -1024.5071   0.66666715   -1018.5511            1   -1024.1821 
Climbing replica = 3
Step MaxReplicaForce MaxAtomForce GradV0 GradV1 GradVc EBF EBR RDT RD1 PE1 RD2 PE2 ... RDN PEN
3259  0.052836418  0.037844696  2.01954e-15 6.2717155e-15  0.052223171    5.9576407    5.6309968     4.105723            0   -1024.5087   0.33333395   -1024.5071   0.66666715   -1018.5511            1   -1024.1821 
3359    1.5358167    1.0291403  2.01954e-15 6.2717155e-15   0.42633812    5.5018269    5.1751831    11.605678            0   -1024.5087   0.29162773   -1018.7662   0.67147845   -1019.0069            1   -1024.1821 
3459    1.8953436    1.1940527  2.01954e-15 6.2717155e-15    1.5844014    5.7272964    5.4006526    5.0077516            0   -1024.5087     0.276381    -1024.341   0.49986633   -1018.7814            1   -1024.1821 
3559     1.775512    1.0639161 2.0364087e-15 4.9998126e-15    1.4529241    5.7362412    5.4095973    5.0282402            0   -1024.5087   0.28338288   -1024.3305   0.49930729   -1018.7725            1   -1024.1821 
3659    1.8483596    1.0764662  2.01954e-15 5.205139e-15    1.0765453    5.7293381    5.4026942    5.1497504            0   -1024.5087    0.2896811   -1024.3602   0.48543002   -1018.7794            1   -1024.1821 
3759    2.3683362    1.1353258 2.1001018e-15 5.7663185e-15   0.69187613    6.1766135    5.8499696    5.1949861            0   -1024.5087   0.30214348    -1024.398   0.47420424   -1018.3321            1   -1024.1821 
3859    4.2275516     1.802224 1.9302726e-15 6.8166036e-15    1.8127466     7.588215    7.2615711    5.2334984            0   -1024.5087   0.32544694    -1024.283   0.48983421   -1016.9205            1   -1024.1821 
3959    8.8442169    5.1408226 2.0962351e-15 5.9112133e-15    6.6728994    9.0347298    8.7080859     5.018448            0   -1024.5087   0.38490609   -1023.8905   0.56582246    -1015.474            1   -1024.1821 
4059    9.3231825    5.8406503 2.0158771e-15 5.0560221e-15    7.4519881    8.6398333    8.3131894    4.9968492            0   -1024.5087   0.39660307   -1023.8459   0.59584431   -1015.8689            1   -1024.1821 
4159    6.6508361    4.0578446  2.01954e-15 4.5812169e-15    5.5042958    6.8150411    6.4883973    5.0315438            0   -1024.5087   0.41264231   -1023.6963   0.68281933   -1017.6937            1   -1024.1821 
4259    2.8360254     2.026531 2.1001018e-15 5.1084246e-15    2.2022147    6.1509974    5.8243536    5.1592299            0   -1024.5087   0.42205833   -1023.4966   0.72648215   -1018.3577            1   -1024.1821 
4359    2.0524815    1.1012086 2.0158771e-15 6.1403103e-15    1.4252707    6.1348386    5.8081947    5.1968978            0   -1024.5087   0.43071125   -1023.3887   0.73734385   -1018.3739            1   -1024.1821 
4459    3.3850382    1.6454311 2.0122314e-15 5.1795988e-15    1.8025141    6.9286452    6.6020013    5.3781842            0   -1024.5087   0.46949972   -1022.5459   0.77567046   -1017.5801            1   -1024.1821 
4559    4.4071524    3.1204914 1.3653938e-15 5.012663e-15    3.6419167    6.5744271    6.2477832    6.5915238            0   -1024.5087   0.41001376   -1022.0715   0.78755192   -1017.9343            1   -1024.1821 
4659    1.2223075   0.88167977 2.0456561e-15 6.3202122e-15   0.88757628    5.7122365    5.3855927     7.666769            0   -1024.5087   0.34921846   -1022.1856   0.75750933   -1018.7965            1   -1024.1821 
4759    2.3036212    1.0071293 2.0418749e-15 6.1395582e-15   0.50062653    6.4008269    6.0741831    7.6482025            0   -1024.5087   0.30441855   -1023.3795   0.75747842   -1018.1079            1   -1024.1821 
4859    6.3604105    4.0567455 2.0418749e-15 7.0183013e-15    4.6326604    8.1068083    7.7801644      6.72637            0   -1024.5087   0.29817944   -1024.1904   0.77805824   -1016.4019            1   -1024.1821 
4959    5.7453849    3.3129532 2.0418749e-15 5.0693444e-15    4.0585263    7.6043837    7.2777399    5.8139582            0   -1024.5087   0.28981895   -1023.9639   0.69978133   -1016.9044            1   -1024.1821 
5059    4.2634655    2.1545402 2.0418749e-15 5.0321692e-15    2.3902827    6.9048338    6.5781899    19.092549            0   -1024.5087   0.25970138   -1017.5524    0.6069184   -1017.6039            1   -1024.1821 
5159    4.0781039    2.2722646 2.0418749e-15 3.6269402e-15    2.6149455    6.2649429     5.938299    24.362685            0   -1024.5087   0.35585403    -1018.975   0.67213745   -1018.2438            1   -1024.1821 
5259    6.5487691    3.0843678 2.0418749e-15 3.5596836e-15    4.3353274    7.4460221    7.1193782    12.357152            0   -1024.5087   0.40903312   -1017.4842   0.66536509   -1017.0627            1   -1024.1821 
5359    2.1051351    1.4217077 2.0418749e-15 3.5124618e-15    1.6481266    5.9221371    5.5954932    7.1531323            0   -1024.5087   0.27792378   -1024.0719   0.57217024   -1018.5866            1   -1024.1821 
5459    7.1047448    4.8498445 2.0381104e-15 4.9512586e-15    5.1221332     7.534343    7.2076991    16.116528            0   -1024.5087   0.25689631    -1018.165   0.62109717   -1016.9744            1   -1024.1821 
5559    5.8450002    3.0518308 2.0418749e-15 4.9512586e-15    4.7273541    6.6094627    6.2828188    26.283425            0   -1024.5087   0.29915474   -1018.8086   0.68184656   -1017.8993            1   -1024.1821 
5659    3.8397224    2.3992807 2.0418749e-15 4.9719067e-15     2.775435    5.8161748    5.4895309    20.951652            0   -1024.5087   0.44597256   -1018.3272   0.79605564   -1018.6926            1   -1024.1821 
5759      2.69459    1.1630896 2.0418749e-15 3.7595694e-15    1.5968441    6.0262801    5.6996363    16.540706            0   -1024.5087   0.30525361   -1017.9789   0.51949873   -1018.4825            1   -1024.1821 
5859     1.512147   0.73469081 2.0381104e-15 3.7538792e-15    1.0676756    5.6370332    5.3103893     13.27864            0   -1024.5087   0.18645928   -1019.0202   0.36628845   -1018.8717            1   -1024.1821 
5959     6.833564    4.6750768 2.0381104e-15 3.7653252e-15    4.8969866    7.6979958    7.3713519    16.364979            0   -1024.5087   0.28148507   -1017.3646    0.6911704   -1016.8107            1   -1024.1821 
6059    4.2275425    2.3039204 2.0418749e-15 3.7710236e-15    2.5826165    6.0019299    5.6752861    16.689638            0   -1024.5087   0.34316746   -1017.6336   0.56562545   -1018.5068            1   -1024.1821 
6159    5.3707071    3.4331601 2.0418749e-15 3.7710236e-15    3.4786468    7.9576365    7.6309927     17.23978            0   -1024.5087   0.24380448   -1019.7176   0.59549102   -1016.5511            1   -1024.1821 
6259    15.088985    11.552771 2.0418749e-15 3.7710236e-15    11.604925     11.20877    10.882126    17.374487            0   -1024.5087   0.36991224   -1018.5615   0.61050011      -1013.3            1   -1024.1821 
6359    14.349372    8.8119797 2.0418749e-15 3.7710236e-15    11.374696    8.8576852    8.5310413    14.221799            0   -1024.5087    0.3562243   -1016.8845   0.47265083   -1015.6511            1   -1024.1821 
6459    4.5717164    2.2858353 2.0418749e-15 3.7595694e-15    3.2010921    11.860325    11.533681    17.334675            0   -1024.5087   0.33410035   -1018.2308   0.56399155   -1012.6484            1   -1024.1821 
6559    13.757889    6.6114512 2.0418749e-15 3.7710236e-15    9.9425894    19.671194     19.34455    6.9590272            0   -1024.5087   0.52073659   -1018.1182   0.70988115   -1004.8375            1   -1024.1821 
6659    3.4246422    1.7305199 2.0381104e-15 4.9824436e-15    1.1193069    6.8943095    6.5676656    12.251407            0   -1024.5087     0.553165   -1018.6033   0.94474542   -1017.6144            1   -1024.1821 
6759    5.9079824     3.059916 2.0381104e-15 4.9824436e-15    3.5958044    10.927492    10.600848    14.711628            0   -1024.5087   0.31395773   -1017.4703   0.43980104   -1013.5812            1   -1024.1821 
6859     4.599322     2.077149 2.0418749e-15 4.9621696e-15     1.571383    7.6033633    7.2767194    19.611317            0   -1024.5087   0.23061058     -1017.29   0.61046173   -1016.9054            1   -1024.1821 
6959    6.9123594    4.1989017 2.0418749e-15 4.9824633e-15    5.3606989    8.3580004    8.0313565    26.347209            0   -1024.5087    0.3191576   -1018.3877   0.70114874   -1016.1507            1   -1024.1821 
7059    3.6352092    2.2393968 2.0418749e-15 4.9227397e-15    2.7666325    7.2736499     6.947006    21.305127            0   -1024.5087   0.36925806   -1017.5885   0.65428848   -1017.2351            1   -1024.1821 
7159    6.4619363    4.6356499 2.0418749e-15 4.9621696e-15    5.3242578     8.096776    7.7701321    18.221162            0   -1024.5087   0.33847576   -1018.5349   0.60397929    -1016.412            1   -1024.1821 
7259     2.020866    1.6089906 2.0418749e-15 4.9621696e-15    1.6478731    11.776374     11.44973    17.309136            0   -1024.5087   0.31168709   -1018.1478    0.5632381   -1012.7324            1   -1024.1821 
7359    8.4518153    5.9384698 2.0381104e-15 5.2235279e-15     6.844334    12.284694     11.95805    17.686497            0   -1024.5087   0.27178894   -1018.8828   0.50364493    -1012.224            1   -1024.1821 
7459    4.1163202    2.6993667 2.0381104e-15 5.2235279e-15    3.6432883     15.95882    15.632176     19.39283            0   -1024.5087   0.23002361   -1018.9992   0.44616208   -1008.5499            1   -1024.1821 
7559     2.752583    2.0197468 2.0418749e-15 5.2235279e-15    2.2782839    11.837552    11.510909    20.469858            0   -1024.5087   0.22975378   -1019.2773   0.44702595   -1012.6712            1   -1024.1821 
7659    1.3050613    1.0592814 2.0418749e-15 5.2235279e-15    1.1512017    11.054011    10.727367    20.472613            0   -1024.5087   0.22162509   -1019.2886   0.43928762   -1013.4547            1   -1024.1821 
7759   0.81600342   0.74621882 2.0418749e-15 5.2235279e-15   0.78607828    10.948895    10.622251    20.490751            0   -1024.5087   0.22029845   -1019.2769   0.43989555   -1013.5598            1   -1024.1821 
7859    1.0636098   0.84619383 2.0418749e-15 5.2235279e-15    0.9879254    10.906771    10.580127    20.432285            0   -1024.5087   0.22052678   -1019.2733   0.43976063    -1013.602            1   -1024.1821 
7959    1.1080919   0.87078514 2.0418749e-15 5.2235279e-15    1.0500231    10.921537    10.594893    20.419823            0   -1024.5087   0.22050165   -1019.2733   0.43947756   -1013.5872            1   -1024.1821 
8059    1.0352185   0.68568711 2.0418749e-15 5.2235279e-15   0.96828958    10.919942    10.593298    20.476587            0   -1024.5087    0.2200273   -1019.2786   0.44102654   -1013.5888            1   -1024.1821 
8159   0.91832593   0.67338904 2.0418749e-15 5.2235279e-15   0.90290234    10.903183    10.576539    20.452647            0   -1024.5087   0.22031057   -1019.2818   0.43960726   -1013.6056            1   -1024.1821 
8259   0.70552262   0.67895979 2.0418749e-15 5.2235279e-15   0.68718736    10.888316    10.561672    20.459493            0   -1024.5087   0.22027727    -1019.285   0.44006278   -1013.6204            1   -1024.1821 
8359   0.55645342     0.532586 2.0418749e-15 5.2235279e-15   0.53274339    10.867884     10.54124    20.443202            0   -1024.5087   0.22035322   -1019.2858   0.44098379   -1013.6409            1   -1024.1821 
8459   0.82713805   0.70693306 2.0418749e-15 5.2235279e-15   0.81615719    10.891945    10.565301    20.470061            0   -1024.5087   0.22005531   -1019.2878   0.43992958   -1013.6168            1   -1024.1821 
8559   0.59462139   0.56292895 2.0418749e-15 5.2235279e-15   0.57262371    10.874514     10.54787    20.460396            0   -1024.5087   0.22026002   -1019.2911   0.44026718   -1013.6342            1   -1024.1821 
8659   0.88702033   0.86252105 2.0418749e-15 5.2235279e-15   0.86534088    10.882732    10.556088    20.464807            0   -1024.5087   0.22019956   -1019.2929   0.43968778    -1013.626            1   -1024.1821 
8759   0.56746321   0.53654139 2.0418749e-15 5.2235279e-15   0.54576649    10.868275    10.541631    20.462342            0   -1024.5087   0.22023023   -1019.2946   0.44027872   -1013.6405            1   -1024.1821 
8859   0.84724564   0.75718933 2.0418749e-15 5.2235279e-15   0.83175535    10.881401    10.554757    20.469291            0   -1024.5087    0.2201035   -1019.2956   0.43982889   -1013.6273            1   -1024.1821 
8959   0.67741754   0.42756033 2.0418749e-15 5.2235279e-15   0.57770873    10.870242    10.543598    20.479456            0   -1024.5087   0.22000198   -1019.2972    0.4412731   -1013.6385            1   -1024.1821 
9059   0.49591984   0.26293864 2.0418749e-15 5.2235279e-15   0.35847745    10.854452    10.527808    20.466736            0   -1024.5087   0.22011078   -1019.2981   0.44130143   -1013.6543            1   -1024.1821 
9159   0.62078149   0.57990202 2.0418749e-15 5.2235279e-15   0.59703689    10.860342    10.533698    20.457369            0   -1024.5087   0.22025424   -1019.2999   0.43997633   -1013.6484            1   -1024.1821 
9259    1.2434398   0.86520881 2.0418749e-15 5.2235279e-15    1.0718327    10.874839    10.548195    20.447703            0   -1024.5087   0.22033655    -1019.301   0.44099284   -1013.6339            1   -1024.1821 
9359    1.2558731   0.95636782 2.0418749e-15 5.2118205e-15    1.0624754    11.041445    10.714802    20.566605            0   -1024.5087   0.22673197   -1019.2984   0.43885653   -1013.4673            1   -1024.1821 
9459    1.0267177   0.84850974 2.0418749e-15 5.2118205e-15   0.94501745    10.870449    10.543805    20.464763            0   -1024.5087   0.22099184    -1019.308   0.43959658   -1013.6383            1   -1024.1821 
9559    0.7697955   0.49359075 2.0418749e-15 5.2118205e-15    0.6913824    10.865046    10.538402    20.482722            0   -1024.5087   0.21999807   -1019.3026   0.44108627   -1013.6437            1   -1024.1821 
9659   0.72459687   0.45299167 2.0158771e-15 7.9212092e-15   0.48593664    10.737537    10.410893    20.573923            0   -1024.5087   0.23342123   -1019.2983   0.46888074   -1013.7712            1   -1024.1821 
9759   0.62478017   0.56129649 2.0158771e-15 6.434755e-15   0.58157775    10.873383    10.546739    20.519756            0   -1024.5087   0.22220388   -1019.3159   0.43996398   -1013.6354            1   -1024.1821 
9859    1.6892781    1.1441119 2.0158771e-15 3.536076e-15    1.3861772    10.916508    10.589864    20.509482            0   -1024.5087   0.22173611   -1019.3154   0.45307091   -1013.5922            1   -1024.1821 
9959   0.91605735   0.81088572 2.0158771e-15 4.8442573e-15   0.84522836     10.91023    10.583586    20.547854            0   -1024.5087   0.22353287   -1019.3111   0.43951994   -1013.5985            1   -1024.1821 
10059   0.83190975   0.66191512 2.0158771e-15 4.7774219e-15   0.79888191     10.85649    10.529846    20.474642            0   -1024.5087   0.22058224   -1019.3076   0.43959596   -1013.6523            1   -1024.1821 
10159    1.0040734   0.69834017 2.0158771e-15 4.8164419e-15    0.8839072    10.856211    10.529568    20.464875            0   -1024.5087   0.22014895   -1019.3041   0.44062196   -1013.6525            1   -1024.1821 
10259   0.64909569   0.58397512 2.0158771e-15 4.7774219e-15   0.60099894    10.830784     10.50414    20.462925            0   -1024.5087   0.22048788   -1019.3077   0.44094378    -1013.678            1   -1024.1821 
10359    1.1968847   0.68694419 1.9653736e-15 7.141919e-15    1.0051473    10.984728    10.658084     20.56149            0   -1024.5087   0.22557109   -1019.2969   0.43911591    -1013.524            1   -1024.1821 
10459   0.54564827   0.52977972 1.9653736e-15 7.141919e-15   0.53338847    10.842111    10.515467    20.488352            0   -1024.5087   0.22085785   -1019.3117   0.43995992   -1013.6666            1   -1024.1821 
10559   0.64191762   0.40736939 1.9653736e-15 6.9501382e-15   0.58750727    10.845603    10.518959    20.486395            0   -1024.5087    0.2199868   -1019.3062    0.4405959   -1013.6631            1   -1024.1821 
10659   0.37389556     0.215491 1.9653736e-15 6.9871409e-15   0.29032928    10.826936    10.500292    20.472853            0   -1024.5087   0.22012573    -1019.307    0.4410699   -1013.6818            1   -1024.1821 
10759   0.46246143   0.42841753 1.9653736e-15 6.9871409e-15   0.44001352    10.832491    10.505847    20.471044            0   -1024.5087   0.22025724   -1019.3086   0.44004939   -1013.6762            1   -1024.1821 
10859    2.1360293    1.4499526 1.9929972e-15 5.232796e-15    1.8584384    11.063884    10.737241    20.601539            0   -1024.5087   0.22795873   -1019.3093   0.44034152   -1013.4449            1   -1024.1821 
10959   0.63503111   0.54525641 1.9929972e-15 5.232796e-15   0.61197708    10.841527    10.514884    20.490536            0   -1024.5087   0.22123399   -1019.3149   0.43961033   -1013.6672            1   -1024.1821 
11059   0.49491122    0.3013551 1.9929972e-15 7.1210649e-15   0.30623401    10.742667    10.416023    20.579454            0   -1024.5087   0.23217309   -1019.3017   0.46970847   -1013.7661            1   -1024.1821 
11159   0.76607875   0.70579906 1.9929972e-15 7.1202518e-15   0.71248682    10.871545    10.544901    20.550833            0   -1024.5087   0.22233465   -1019.3162   0.43983993   -1013.6372            1   -1024.1821 
11259    1.5849179   0.95402411 1.9929972e-15 6.8429829e-15    1.0870084    10.886306    10.559662     20.65266            0   -1024.5087   0.23090754   -1019.3086   0.45398286   -1013.6224            1   -1024.1821 
11359   0.40924887   0.25659157 1.9929972e-15 6.7513847e-15   0.26449418    10.838268    10.511624     20.54559            0   -1024.5087   0.22173747   -1019.3174   0.44164992   -1013.6705            1   -1024.1821 
11459    2.6897197    1.9825433 1.9929972e-15 6.8201494e-15    2.2999879    11.070152    10.743508    20.652983            0   -1024.5087   0.22878679   -1019.3129    0.4424268   -1013.4386            1   -1024.1821 
11559   0.78097029   0.71920245 1.9929972e-15 6.8429829e-15   0.72231916     10.90506    10.578417    20.596278            0   -1024.5087   0.22209149   -1019.3156    0.4397954   -1013.6037            1   -1024.1821 
11659    1.0593875   0.62403551 2.0327999e-15 5.1587314e-15   0.81881496    10.855607    10.528963    20.669783            0   -1024.5087   0.23081042   -1019.3086   0.45338487   -1013.6531            1   -1024.1821 
11759   0.68273308   0.55914891 2.0327999e-15 6.4823702e-15    0.6194604    10.887615    10.560971    20.579155            0   -1024.5087   0.22192766   -1019.3172   0.43992444   -1013.6211            1   -1024.1821 
11859   0.73680099   0.61341724 2.0327999e-15 6.4823702e-15   0.69613675    10.834892    10.508248    20.487864            0   -1024.5087   0.22069797    -1019.312   0.43956461   -1013.6738            1   -1024.1821 
11959    0.4780803   0.43533373 2.0327999e-15 6.4823702e-15   0.47096042    10.821111    10.494467    20.488536            0   -1024.5087   0.22005935   -1019.3085   0.44008368   -1013.6876            1   -1024.1821 
12059    1.1038853   0.70384432 2.0327999e-15 6.4823702e-15   0.87491939    10.896064     10.56942    20.526483            0   -1024.5087   0.22121624   -1019.3163   0.45179204   -1013.6127            1   -1024.1821 
12159    1.0048153   0.85188682 2.0327999e-15 5.7334953e-15   0.90295473    10.936255    10.609611    20.599446            0   -1024.5087   0.22393265   -1019.2999   0.43916186   -1013.5725            1   -1024.1821 
12259   0.48941594   0.44890726 2.0327999e-15 5.7072364e-15    0.4762584    10.824954     10.49831    20.512205            0   -1024.5087   0.22062726   -1019.3137   0.43985561   -1013.6838            1   -1024.1821 
12359   0.42403088   0.40118049 2.0327999e-15 5.7072364e-15   0.42051314    10.816169    10.489525     20.49107            0   -1024.5087   0.22008099   -1019.3096   0.43999799   -1013.6926            1   -1024.1821 
12459   0.55254576   0.45457577 2.0327999e-15 5.7072364e-15   0.52030992    10.817352    10.490709    20.478979            0   -1024.5087   0.22006533   -1019.3091   0.43969893   -1013.6914            1   -1024.1821 
12559   0.54598596   0.44896961 2.0327999e-15 5.7072364e-15   0.51399527    10.816812    10.490168    20.477396            0   -1024.5087   0.22003238   -1019.3092    0.4396909   -1013.6919            1   -1024.1821 
12659     1.649259    1.0920673 2.0122314e-15 5.694535e-15    1.3386165    10.929755    10.603111    20.651202            0   -1024.5087   0.22952526   -1019.3124   0.44810729    -1013.579            1   -1024.1821 
12759   0.90387645    0.7478724 2.0327999e-15 5.7207849e-15   0.82831445    10.861662    10.535018    20.539565            0   -1024.5087   0.22187827   -1019.3174   0.43942635   -1013.6471            1   -1024.1821 
12859   0.48572866   0.38458283 2.0327999e-15 5.7207849e-15   0.47715616    10.817184     10.49054    20.494272            0   -1024.5087   0.22032006   -1019.3122   0.43964886   -1013.6916            1   -1024.1821 
12959   0.35325006   0.34663068 2.0327999e-15 5.7207849e-15   0.34869654    10.812382    10.485738    20.490798            0   -1024.5087   0.21997998   -1019.3103   0.43981227   -1013.6964            1   -1024.1821 
13059   0.33684453   0.33058968 2.0327999e-15 5.7207849e-15   0.33273445    10.811405    10.484761     20.48873            0   -1024.5087   0.21991064   -1019.3102   0.43982558   -1013.6973            1   -1024.1821 
13159   0.39371404   0.26746155 2.0327999e-15 5.7207849e-15   0.34227961     10.81051    10.483866    20.485929            0   -1024.5087   0.22006239   -1019.3114   0.44034749   -1013.6982            1   -1024.1821 
13259   0.49474568   0.40883352 2.0327999e-15 5.7207849e-15   0.47429569    10.813151    10.486507    20.474202            0   -1024.5087   0.22009672   -1019.3112   0.43963328   -1013.6956            1   -1024.1821 
13359   0.48283836   0.39854472 2.0327999e-15 5.7207849e-15   0.46308469    10.812447    10.485803    20.475235            0   -1024.5087    0.2200495   -1019.3114   0.43963898   -1013.6963            1   -1024.1821 
13459   0.28212373   0.26011614 2.0327999e-15 5.7207849e-15   0.26605728    10.808098    10.481455    20.487879            0   -1024.5087   0.22002701   -1019.3124   0.43989754   -1013.7006            1   -1024.1821 
13559   0.32593578   0.29470688 2.0327999e-15 5.7207849e-15   0.32073307    10.809006    10.482362    20.491113            0   -1024.5087   0.21989819   -1019.3122   0.43985379   -1013.6997            1   -1024.1821 
13659   0.33723789   0.30309598 2.0327999e-15 5.7207849e-15   0.33173691    10.808651    10.482007    20.491235            0   -1024.5087   0.21987241   -1019.3123   0.43985884   -1013.7001            1   -1024.1821 
13759   0.33314396   0.29942227 2.0327999e-15 5.7207849e-15   0.32769258    10.808208    10.481565    20.491384            0   -1024.5087   0.21986801   -1019.3126   0.43985468   -1013.7005            1   -1024.1821 
13859    0.3130869   0.28314841 2.0327999e-15 5.7207849e-15   0.30802693    10.807571    10.480927    20.491616            0   -1024.5087   0.21988019   -1019.3129     0.439844   -1013.7012            1   -1024.1821 
13959   0.34256992   0.27403317 2.0327999e-15 5.7207849e-15   0.34038205    10.807509    10.480865    20.486249            0   -1024.5087   0.21994711   -1019.3132   0.43968483   -1013.7012            1   -1024.1821 
14059   0.33739696   0.26984839 2.0327999e-15 5.7207849e-15   0.33526642    10.806985    10.480341    20.487015            0   -1024.5087   0.21994542   -1019.3135   0.43968641   -1013.7018            1   -1024.1821 
14159   0.28766981   0.28323087 2.0327999e-15 5.7207849e-15   0.28451412    10.805376    10.478732    20.489858            0   -1024.5087   0.21990751   -1019.3137   0.43983486   -1013.7034            1   -1024.1821 
14259   0.28275605   0.27837199 2.0327999e-15 5.7207849e-15   0.27964917    10.804889    10.478245    20.490008            0   -1024.5087   0.21990822    -1019.314   0.43984206   -1013.7039            1   -1024.1821 
14359   0.32928005   0.27389983 2.0327999e-15 5.7207849e-15   0.32483486    10.805077    10.478434    20.484303            0   -1024.5087   0.21997887   -1019.3142    0.4397006   -1013.7037            1   -1024.1821 
14459   0.32444948    0.2698292 2.0327999e-15 5.7207849e-15   0.32007771    10.804602    10.477958    20.485116            0   -1024.5087   0.21997684   -1019.3144   0.43970286   -1013.7041            1   -1024.1821 
14559   0.24916043   0.22842815 2.0327999e-15 5.7207849e-15   0.23670439    10.803205    10.476562    20.486858            0   -1024.5087   0.21996113   -1019.3146   0.43985333   -1013.7055            1   -1024.1821 
14659   0.24541764   0.22489244 2.0327999e-15 5.7207849e-15   0.23306797    10.802823    10.476179    20.487182            0   -1024.5087   0.21996118   -1019.3149   0.43985584   -1013.7059            1   -1024.1821 
14759   0.31638905   0.23318876 2.0327999e-15 5.7207849e-15   0.31360569    10.804685    10.478042    20.491578            0   -1024.5087    0.2198825   -1019.3149    0.4397076   -1013.7041            1   -1024.1821 
14859   0.40681437   0.33540762 2.0327999e-15 5.7207849e-15   0.39027482    10.805358    10.478715    20.481132            0   -1024.5087   0.22000104   -1019.3151   0.43962911   -1013.7034            1   -1024.1821 
14959   0.40495523   0.33542697 2.0327999e-15 5.7207849e-15   0.38458876    10.804127    10.477483    20.482755            0   -1024.5087   0.22002055   -1019.3154   0.43965555   -1013.7046            1   -1024.1821 
15059   0.22164883   0.20328175 2.0327999e-15 5.7207849e-15   0.20793025    10.801896    10.475252    20.492301            0   -1024.5087   0.21989177   -1019.3154   0.43985739   -1013.7068            1   -1024.1821 
15159   0.21630246   0.19839684 2.0327999e-15 5.7207849e-15   0.20420451    10.800609    10.473965    20.489422            0   -1024.5087   0.21995379   -1019.3157   0.43996093   -1013.7081            1   -1024.1821 
15259    0.2787317    0.2516451 2.0327999e-15 5.7207849e-15   0.27401958    10.802379    10.475735     20.49456            0   -1024.5087   0.21987156   -1019.3157   0.43982393   -1013.7064            1   -1024.1821 
15359   0.40905477   0.33626662 2.0327999e-15 5.7207849e-15   0.37998059    10.802301    10.475657    20.487266            0   -1024.5087   0.22000064   -1019.3161   0.43967961   -1013.7064            1   -1024.1821 
15459    1.0403589   0.83011032 2.0327999e-15 5.7429375e-15   0.87431855    10.967458    10.640814    20.642073            0   -1024.5087   0.22556046   -1019.3065   0.43939221   -1013.5413            1   -1024.1821 
15559   0.77129904   0.45929508 2.0327999e-15 5.716722e-15    0.6086503    10.851259    10.524615    20.575977            0   -1024.5087   0.22133883   -1019.3158   0.44066575   -1013.6575            1   -1024.1821 
15659   0.12944848   0.06494722 2.0327999e-15 6.3091774e-15  0.070130266    10.795175    10.468531    20.504493            0   -1024.5087   0.22031725   -1019.3174   0.44123894   -1013.7136            1   -1024.1821 
15759   0.92946597    0.7947214 2.0327999e-15 6.3082053e-15   0.79986478    10.930771    10.604127    20.636737            0   -1024.5087   0.22421898   -1019.3003   0.43947824    -1013.578            1   -1024.1821 
15859    0.4533307    0.3509028 2.0327999e-15 6.3082053e-15   0.39800158    10.833488    10.506844    20.572769            0   -1024.5087     0.221104   -1019.3175   0.43990056   -1013.6753            1   -1024.1821 
15959   0.65447233   0.36039376 2.0327999e-15 6.3082053e-15   0.40851365    10.873086    10.546442    20.575195            0   -1024.5087   0.22545389   -1019.2977   0.46183051   -1013.6357            1   -1024.1821 
16059   0.82838396   0.75539666 2.0327999e-15 6.3082053e-15   0.75686478    10.894732    10.568088    20.633086            0   -1024.5087   0.22265122   -1019.2991   0.43942798    -1013.614            1   -1024.1821 
16159   0.47599731     0.424377 2.0327999e-15 6.3082053e-15   0.43607377    10.822799    10.496155    20.562334            0   -1024.5087   0.22080825   -1019.3183     0.439806   -1013.6859            1   -1024.1821 
16259   0.59382365   0.36408124 2.0122314e-15 7.6614971e-15   0.44708285    10.720364     10.39372     20.60569            0   -1024.5087   0.23173565   -1019.2953   0.46471023   -1013.7884            1   -1024.1821 
16359   0.68143984   0.61195235 2.0327999e-15 5.7271845e-15   0.61692542    10.879775    10.553131    20.634139            0   -1024.5087   0.22201389   -1019.3054   0.43981804    -1013.629            1   -1024.1821 
16459   0.39115587   0.15064625 2.0327999e-15 5.6925144e-15   0.21708705    10.821094     10.49445    20.569865            0   -1024.5087    0.2205954   -1019.3184   0.44067816   -1013.6876            1   -1024.1821 
16559   0.59731721   0.22469415 2.0327999e-15 6.4984654e-15      0.30378    10.812673    10.486029    20.590322            0   -1024.5087   0.22783696   -1019.3095   0.46590369   -1013.6961            1   -1024.1821 
16659   0.87851868   0.80282866 2.0327999e-15 6.6747401e-15    0.8060611    10.896962    10.570318    20.647286            0   -1024.5087   0.22249848      -1019.3   0.43925621   -1013.6118            1   -1024.1821 
16759   0.34155839   0.15295302 2.0327999e-15 6.6569694e-15   0.19995621     10.82638    10.499736    20.589677            0   -1024.5087   0.22069112   -1019.3183   0.44085939   -1013.6824            1   -1024.1821 
16859   0.23181283   0.21184936 2.0327999e-15 6.7993367e-15   0.21382538     10.79745    10.470806    20.523134            0   -1024.5087   0.22028178   -1019.3172   0.44001801   -1013.7113            1   -1024.1821 
16959   0.20715101   0.16308752 2.0327999e-15 6.6731397e-15   0.20443619    10.795425    10.468781    20.503679            0   -1024.5087   0.22003894   -1019.3159   0.43970869   -1013.7133            1   -1024.1821 
17059    3.3239147    2.6790985 2.0327999e-15 6.6279673e-15    2.8922001    11.182585    10.855942    20.461527            0   -1024.5087   0.22184449    -1019.318   0.45592849   -1013.3262            1   -1024.1821 
17159    5.5892686    3.4062812 2.0327999e-15 6.6325387e-15    3.8245243    14.803071    14.476427    18.665286            0   -1024.5087    0.2661276   -1019.1064   0.58551329   -1009.7057            1   -1024.1821 
17259    3.1305413    1.6838114 2.0327999e-15 6.7790273e-15    2.4971089    9.3774409     9.050797    21.792235            0   -1024.5087   0.32562461   -1018.3707   0.69620164   -1015.1313            1   -1024.1821 
17359    14.008268    9.5753091 2.0327999e-15 6.7964646e-15    10.054267    19.185821    18.859177    20.832141            0   -1024.5087   0.29040362   -1019.1792   0.66333743   -1005.3229            1   -1024.1821 
17459     20.58722    14.426191 2.0327999e-15 6.6747401e-15    14.733177    21.374835    21.048191    21.597915            0   -1024.5087   0.30150637   -1019.3405   0.57026049   -1003.1339            1   -1024.1821 
17559    5.7034179    4.2202473 2.0327999e-15 6.6569694e-15    4.2872687    12.673895    12.347252    20.261066            0   -1024.5087   0.31882864   -1019.0838   0.62376679   -1011.8348            1   -1024.1821 
17659    4.0325556    2.2728021 2.0327999e-15 6.6747401e-15    1.7532388    13.828978    13.502334    21.582848            0   -1024.5087   0.27364248   -1017.8321   0.67624647   -1010.6798            1   -1024.1821 
17759    6.3156379    3.3876558 2.0327999e-15 6.6569694e-15    4.7215406    13.418579    13.091935    20.046833            0   -1024.5087   0.32624864     -1017.63   0.77080102   -1011.0902            1   -1024.1821 
17859    2.8776762    1.7066641 2.0327999e-15 6.6569694e-15    2.0620883    11.818208    11.491565     21.77746            0   -1024.5087   0.34895673   -1018.6288   0.61170258   -1012.6905            1   -1024.1821 
17959    4.5394986    2.5500251 2.0327999e-15 6.6569694e-15    2.8586249     13.79013    13.463486    22.175967            0   -1024.5087   0.29102546    -1018.649   0.54579839   -1010.7186            1   -1024.1821 
18059     3.466911    2.7873447 2.0327999e-15 6.6569694e-15    3.0071494    10.604464     10.27782    23.856099            0   -1024.5087   0.28043005   -1018.8251   0.56370881   -1013.9043            1   -1024.1821 
18159    1.5281102    1.3918186 2.0327999e-15 6.6747401e-15    1.4113051    11.097092    10.770448    24.252325            0   -1024.5087   0.27377222    -1019.163   0.54852495   -1013.4116            1   -1024.1821 
18259    1.5033959    1.1724639 2.0327999e-15 6.6569694e-15    1.4297466     10.90154    10.574897    24.346419            0   -1024.5087   0.27352196   -1019.1841   0.54873143   -1013.6072            1   -1024.1821 
18359    2.1915603    1.8797178 2.0327999e-15 6.6747401e-15    2.1282803    10.935448    10.608804    24.289913            0   -1024.5087   0.27428402   -1019.1884   0.54823446   -1013.5733            1   -1024.1821 
18459    2.6783949    2.2689632 2.0327999e-15 6.6747401e-15    2.5576279    10.902848    10.576204    24.304413            0   -1024.5087   0.27441305   -1019.1976   0.54819439   -1013.6059            1   -1024.1821 
18559    2.0540889    1.8816775 2.0327999e-15 6.6569694e-15     2.040623     10.89184    10.565196    24.252967            0   -1024.5087   0.27485705   -1019.1951   0.54854443   -1013.6169            1   -1024.1821 
18659    2.5662681     1.789018 2.0327999e-15 6.6747401e-15    2.5064822    10.845157    10.518513    24.318796            0   -1024.5087   0.27420289   -1019.1982   0.54844751   -1013.6636            1   -1024.1821 
18759    2.1347806    1.9517546 2.0327999e-15 6.6747401e-15    2.1218918    10.886894    10.560251    24.230219            0   -1024.5087   0.27472209   -1019.1857   0.54855644   -1013.6218            1   -1024.1821 
18859    2.1434532    1.9669079 2.0327999e-15 6.6569694e-15    2.1303154    10.887153    10.560509    24.228769            0   -1024.5087   0.27455785   -1019.1811    0.5485742   -1013.6216            1   -1024.1821 
18959     2.010842    1.5202185 2.0327999e-15 6.6569694e-15    1.9525442    10.840344    10.513701    24.247379            0   -1024.5087   0.27419079   -1019.1763   0.54866271   -1013.6684            1   -1024.1821 
19059    2.0366724    1.6773454 2.0327999e-15 6.6747401e-15    1.9897858    10.868658    10.542014    24.210053            0   -1024.5087    0.2744725   -1019.1737   0.54836638   -1013.6401            1   -1024.1821 
19159    2.8514621    1.7144248 2.0327999e-15 6.6569694e-15     2.705938    10.918814    10.592171    24.186775            0   -1024.5087   0.27455883   -1019.1676   0.54835121   -1013.5899            1   -1024.1821 
19259    2.1987125    1.9980924 2.0327999e-15 6.6569694e-15    2.1826419      10.9024    10.575757    24.179561            0   -1024.5087   0.27452782   -1019.1638   0.54855335   -1013.6063            1   -1024.1821 
19359    2.0915948    1.7380211 2.0327999e-15 6.6569694e-15    2.0448977    10.892383    10.565739    24.165455            0   -1024.5087   0.27458421   -1019.1599   0.54846201   -1013.6164            1   -1024.1821 
19459     2.065217    1.7374634 2.0327999e-15 6.6747401e-15    2.0204699    10.839083    10.512439    24.177798            0   -1024.5087   0.27439939   -1019.1584     0.548756   -1013.6697            1   -1024.1821 
19559    2.6369898    2.5421807 2.0327999e-15 6.6569694e-15    2.5732257    10.724664     10.39802     24.30438            0   -1024.5087   0.27327724   -1019.1757   0.54862476   -1013.7841            1   -1024.1821 
19659    2.1347272    1.5925311 2.0327999e-15 6.6569694e-15    1.9898345    10.720791    10.394147    24.225426            0   -1024.5087   0.27402103   -1019.1756   0.54884108   -1013.7879            1   -1024.1821 
19759    3.1992345    1.8356673 2.0327999e-15 6.6569694e-15    3.0492303    10.794777    10.468133    24.170947            0   -1024.5087   0.27478583   -1019.1841   0.54840835    -1013.714            1   -1024.1821 
19859    2.8679549    2.7890661 2.0327999e-15 6.6569694e-15    2.8069949    10.629466    10.302822    24.312685            0   -1024.5087   0.27338006   -1019.1918   0.54838458   -1013.8793            1   -1024.1821 
19959    2.1536068    1.8364321 2.0327999e-15 6.6747401e-15     1.975491    10.593783    10.267139    24.248853            0   -1024.5087   0.27396707   -1019.1896   0.54911943    -1013.915            1   -1024.1821 
20059    2.0656972    1.7719356 2.0327999e-15 6.6569694e-15    1.8597979    10.482175    10.155531    24.335127            0   -1024.5087   0.27312198   -1019.1943   0.54942441   -1014.0266            1   -1024.1821 
20159    2.3409421    1.9946489 2.0327999e-15 6.6569694e-15    2.0918023    10.522365    10.195721    24.311793            0   -1024.5087   0.27369966   -1019.2035   0.54835436   -1013.9864            1   -1024.1821 
20259    4.3882172    3.5980167 2.0327999e-15 6.6747401e-15    4.1119494    10.667093    10.340449     24.22545            0   -1024.5087   0.27487765   -1019.2078   0.54827001   -1013.8416            1   -1024.1821 
20359    3.0814767     2.157477 2.0327999e-15 6.6569694e-15     3.051511    10.579779    10.253135    24.220607            0   -1024.5087   0.27514385   -1019.2116   0.54796301    -1013.929            1   -1024.1821 
20459    2.3081745    1.9617532 2.0327999e-15 6.6569694e-15    2.0491613    10.422593    10.095949    24.312085            0   -1024.5087   0.27371031    -1019.205   0.54856111   -1014.0861            1   -1024.1821 
20559     2.979964    2.0872751 2.0327999e-15 6.6569694e-15    2.9569046    10.543711    10.217067    24.216741            0   -1024.5087   0.27456232   -1019.2011   0.54819502    -1013.965            1   -1024.1821 
20659      3.05971    2.1423514 2.0327999e-15 6.6569694e-15    3.0286894    10.504711    10.178068    24.226196            0   -1024.5087   0.27466164   -1019.2066    0.5484278    -1014.004            1   -1024.1821 
20759    4.2889206    3.4823732 2.0327999e-15 6.6569694e-15    4.0184299    10.507118    10.180474    24.230879            0   -1024.5087   0.27461356   -1019.2072   0.54822607   -1014.0016            1   -1024.1821 
20859    2.3472155    1.8980899 2.0327999e-15 6.6569694e-15    2.2625763    10.337183    10.010539    24.247056            0   -1024.5087   0.27436516   -1019.2066   0.54846085   -1014.1716            1   -1024.1821 
20959    2.6614935    2.4483344 2.0327999e-15 6.6747401e-15    2.6464484    10.355371    10.028727    24.246865            0   -1024.5087   0.27420047    -1019.204   0.54827151   -1014.1534            1   -1024.1821 
21059    2.3545768    2.1396826 2.0327999e-15 6.6569694e-15    2.2695521    10.313131    9.9864868    24.236983            0   -1024.5087   0.27431114   -1019.2049   0.54833939   -1014.1956            1   -1024.1821 
21159    2.6852301    2.5624353 2.0327999e-15 6.6747401e-15    2.6540314    10.228019    9.9013751    24.298068            0   -1024.5087   0.27375661   -1019.2081   0.54840632   -1014.2807            1   -1024.1821 
21259    2.2806873    2.0800602 2.0327999e-15 6.6747401e-15    2.1858189     10.21857    9.8919262    24.267036            0   -1024.5087   0.27420678   -1019.2103   0.54836622   -1014.2902            1   -1024.1821 
21359    2.3387849    2.1407996 2.0327999e-15 6.6569694e-15    2.2573049    10.220614    9.8939701    24.236657            0   -1024.5087   0.27453928   -1019.2105   0.54834324   -1014.2881            1   -1024.1821 
21459    2.0425244    1.8428134 2.0327999e-15 6.6569694e-15    1.9247546    10.103818    9.7771743    24.293837            0   -1024.5087   0.27390358   -1019.2112   0.54905783   -1014.4049            1   -1024.1821 
21559    2.2175928    1.9265477 2.0327999e-15 6.6569694e-15    2.0514268    10.168775    9.8421316    24.249706            0   -1024.5087    0.2742643   -1019.2094   0.54871294     -1014.34            1   -1024.1821 
21659    2.5921144    2.5269729 2.0327999e-15 6.6747401e-15    2.5767404    10.186732    9.8600877    24.226333            0   -1024.5087   0.27446667   -1019.2089   0.54813115    -1014.322            1   -1024.1821 
21759    2.6093348     2.521015 2.0327999e-15 6.6569694e-15    2.5855854    10.124858    9.7982142    24.278346            0   -1024.5087   0.27385679   -1019.2091   0.54821704   -1014.3839            1   -1024.1821 
21859    2.7706829     1.887542 2.0327999e-15 6.6569694e-15    2.7478147    10.183833    9.8571886    24.223327            0   -1024.5087    0.2743214   -1019.2068   0.54831843   -1014.3249            1   -1024.1821 
21959     2.585828    2.4205917 2.0327999e-15 6.6747401e-15    2.5697781    10.127877    9.8012329    24.240835            0   -1024.5087   0.27416528   -1019.2083   0.54833892   -1014.3809            1   -1024.1821 
22059    2.1493105    1.7288719 2.0327999e-15 6.6569694e-15    2.0972193    10.050025    9.7233812    24.242251            0   -1024.5087   0.27423802   -1019.2104   0.54839471   -1014.4587            1   -1024.1821 
22159    2.3919139    1.5529686 2.0327999e-15 6.6569694e-15    2.3705409    10.015274    9.6886301    24.284587            0   -1024.5087   0.27378305   -1019.2111   0.54822617   -1014.4935            1   -1024.1821 
22259    2.3227814    1.5165616 2.0327999e-15 6.6569694e-15    2.3005873    9.9939703    9.6673264    24.284329            0   -1024.5087   0.27367268   -1019.2097   0.54830852   -1014.5148            1   -1024.1821 
22359    2.0812833    1.6717848 2.0327999e-15 6.6747401e-15     2.035525    9.9985064    9.6718626    24.239965            0   -1024.5087   0.27413987   -1019.2097   0.54835352   -1014.5102            1   -1024.1821 
22459    2.3279635    2.2763047 2.0327999e-15 6.6747401e-15    2.3152738    9.9976235    9.6709796    24.240151            0   -1024.5087   0.27421904   -1019.2115   0.54819418   -1014.5111            1   -1024.1821 
22559    2.4519355    1.7684177 2.0327999e-15 6.6569694e-15    2.4342493     9.994441    9.6677972     24.24658            0   -1024.5087   0.27415384    -1019.212   0.54811595   -1014.5143            1   -1024.1821 
22659    1.8813726    1.6859963 2.0327999e-15 6.6569694e-15    1.7619015    9.9195429     9.592899    24.262845            0   -1024.5087   0.27395575   -1019.2121   0.54871262   -1014.5892            1   -1024.1821 
22759    2.1076232    1.7825332 2.0327999e-15 6.6569694e-15    2.0767642    9.9756845    9.6490406    24.185177            0   -1024.5087   0.27463827   -1019.2093   0.54830748   -1014.5331            1   -1024.1821 
22859    2.9533709    1.9706669 2.0327999e-15 6.6569694e-15    2.7917318    9.9877421    9.6610983    24.170156            0   -1024.5087   0.27445512   -1019.2037   0.54864324    -1014.521            1   -1024.1821 
22959    1.8804202    1.2092004 2.0327999e-15 6.6747401e-15     1.603653    9.9038577    9.5772138    24.175808            0   -1024.5087   0.27426959   -1019.2024    0.5496607   -1014.6049            1   -1024.1821 
23059    3.1646355    2.7141318 2.0327999e-15 6.6747401e-15    3.0338491    10.115212    9.7885685    24.105912            0   -1024.5087   0.27521536   -1019.2063   0.54892447   -1014.3935            1   -1024.1821 
23159     2.182808    1.5896349 2.0327999e-15 6.6569694e-15     2.161537    9.9054672    9.5788234    24.204487            0   -1024.5087   0.27403171   -1019.2057   0.54823222   -1014.6033            1   -1024.1821 
23259    2.3931536     2.169708 2.0327999e-15 6.6569694e-15    2.3589208    9.9244684    9.5978245    24.195967            0   -1024.5087   0.27420869   -1019.2079   0.54820689   -1014.5843            1   -1024.1821 
23359    1.7241684    1.1477819 2.0327999e-15 6.6747401e-15    1.4771238    9.7953933    9.4687494    24.204174            0   -1024.5087   0.27416804   -1019.2095   0.54957897   -1014.7133            1   -1024.1821 
23459    1.9212431    1.5935591 2.0327999e-15 6.6569694e-15    1.9031284    9.8407895    9.5141456    24.191595            0   -1024.5087   0.27431082   -1019.2099   0.54833968    -1014.668            1   -1024.1821 
23559    2.0080782    1.4542527 2.0327999e-15 6.6569694e-15    1.9917244    9.7983112    9.4716673    24.230887            0   -1024.5087   0.27386728   -1019.2105   0.54830316   -1014.7104            1   -1024.1821 
23659      2.15229     1.450853 2.0327999e-15 6.6747401e-15    2.1383119    9.8454381    9.5187942    24.198829            0   -1024.5087   0.27428256   -1019.2118   0.54798276   -1014.6633            1   -1024.1821 
23759    1.8639882    1.5377162 2.0327999e-15 6.6747401e-15    1.8472284    9.7941774    9.4675335    24.204198            0   -1024.5087   0.27422502   -1019.2122   0.54819894   -1014.7146            1   -1024.1821 
23859    1.6607942    1.5181833 2.0327999e-15 6.6747401e-15    1.5970301    9.7379312    9.4112873    24.235732            0   -1024.5087   0.27388782   -1019.2128   0.54859154   -1014.7708            1   -1024.1821 
23959    2.5155678    2.2317017 2.0327999e-15 6.6569694e-15    2.4271563    9.8329288    9.5062849    24.175199            0   -1024.5087   0.27471098    -1019.215   0.54883937   -1014.6758            1   -1024.1821 
24059    1.5551693    1.4167317 2.0327999e-15 6.6569694e-15    1.4805641    9.6664986    9.3398547    24.263587            0   -1024.5087   0.27376995   -1019.2158   0.54877335   -1014.8422            1   -1024.1821 
24159    1.9953817    1.3735256 2.0327999e-15 6.6569694e-15    1.9820613    9.7194457    9.3928018    24.240045            0   -1024.5087    0.2741257    -1019.217    0.5479303   -1014.7893            1   -1024.1821 
24259    1.5951425    1.4171333 2.0327999e-15 6.6747401e-15    1.5291846    9.6488593    9.3222154    24.251268            0   -1024.5087   0.27399601   -1019.2171   0.54878963   -1014.8599            1   -1024.1821 
24359    1.9337238     1.412017 2.0327999e-15 6.6747401e-15     1.918955    9.6672034    9.3405595    24.250059            0   -1024.5087   0.27406528   -1019.2178   0.54815349   -1014.8415            1   -1024.1821 
24459    2.0655636    1.3581806 2.0327999e-15 6.6569694e-15    2.0419601    9.6656907    9.3390468    24.254437            0   -1024.5087   0.27409987   -1019.2187   0.54814118    -1014.843            1   -1024.1821 
24559    1.5345881    1.3816731 2.0327999e-15 6.6569694e-15    1.4628041    9.5727142    9.2460703    24.282574            0   -1024.5087   0.27384847   -1019.2192    0.5488344    -1014.936            1   -1024.1821 
24659    1.6203326    1.4706249 2.0327999e-15 6.6747401e-15    1.5643143     9.577349    9.2507051    24.276332            0   -1024.5087   0.27400025   -1019.2199   0.54867925   -1014.9314            1   -1024.1821 
24759    1.7871235    1.4568114 2.0327999e-15 6.6747401e-15    1.7731346    9.5840994    9.2574556    24.259328            0   -1024.5087   0.27428096   -1019.2204   0.54826541   -1014.9246            1   -1024.1821 
24859     1.760205    1.4185323 2.0327999e-15 6.6569694e-15    1.7459701    9.5563029    9.2296591     24.27264            0   -1024.5087   0.27418965   -1019.2207    0.5482984   -1014.9524            1   -1024.1821 
24959    1.5528956    1.4109865 2.0327999e-15 6.6569694e-15    1.4925347    9.5011899     9.174546       24.303            0   -1024.5087    0.2739069   -1019.2209   0.54878697   -1015.0076            1   -1024.1821 
25059    1.8624802    1.3129808 2.0327999e-15 6.6747401e-15    1.8481154    9.5060331    9.1793892    24.312807            0   -1024.5087   0.27383602   -1019.2211   0.54820798   -1015.0027            1   -1024.1821 
25159    1.5629935    1.4271732 2.0327999e-15 6.6569694e-15    1.5055529    9.4640565    9.1374127    24.313847            0   -1024.5087   0.27391609   -1019.2213   0.54878958   -1015.0447            1   -1024.1821 
25259    2.1146924    1.4339842 2.0327999e-15 6.6569694e-15     2.086156    9.5147142    9.1880703    24.290861            0   -1024.5087    0.2742581   -1019.2214   0.54820509    -1014.994            1   -1024.1821 
25359    1.7773455    1.4244104 2.0327999e-15 6.6747401e-15    1.7641045    9.4700239    9.1433801    24.291286            0   -1024.5087   0.27432016   -1019.2215   0.54823346   -1015.0387            1   -1024.1821 
25459    1.8983883     1.322706 2.0327999e-15 6.6747401e-15    1.8862732    9.4445094    9.1178656    24.327527            0   -1024.5087   0.27396605   -1019.2214    0.5480622   -1015.0642            1   -1024.1821 
25559    2.1463072    1.4651326 2.0327999e-15 6.6569694e-15    2.1155809    9.4784832    9.1518393    24.288603            0   -1024.5087   0.27444026   -1019.2214   0.54828433   -1015.0303            1   -1024.1821 
25659     1.484292    1.3375117 2.0327999e-15 6.6569694e-15    1.4127301    9.3720414    9.0453975    24.334297            0   -1024.5087   0.27396205   -1019.2214   0.54874167   -1015.1367            1   -1024.1821 
25759    1.5248873    1.3868623 2.0327999e-15 6.6747401e-15    1.4637048    9.3609667    9.0343228    24.333534            0   -1024.5087   0.27400189   -1019.2214    0.5487123   -1015.1478            1   -1024.1821 
25859    2.1799696    1.5058308 2.0327999e-15 6.6747401e-15    2.1482069    9.4076038      9.08096    24.316297            0   -1024.5087   0.27427927   -1019.2212   0.54825768   -1015.1011            1   -1024.1821 
25959     1.954349     1.367356 2.0327999e-15 6.6569694e-15    1.9416022    9.3345404    9.0078966    24.344144            0   -1024.5087   0.27400007   -1019.2211   0.54819671   -1015.1742            1   -1024.1821 
26059    2.2999534    1.6151061 2.0327999e-15 6.6569694e-15    2.2647156     9.358937    9.0322932    24.322478            0   -1024.5087    0.2743534   -1019.2207   0.54825546   -1015.1498            1   -1024.1821 
26159    1.6212565     1.479083 2.0327999e-15 6.6747401e-15    1.5534457    9.2630106    8.9363668    24.353402            0   -1024.5087   0.27403391   -1019.2207   0.54868646   -1015.2457            1   -1024.1821 
26259    1.6782797    1.5370671 2.0327999e-15 6.6747401e-15    1.6094667    9.2721705    8.9455266    24.349513            0   -1024.5087   0.27405099   -1019.2208   0.54846272   -1015.2366            1   -1024.1821 
26359    2.4790162    2.2004995 2.0327999e-15 6.6747401e-15    2.4121006    9.3556321    9.0289882    24.297402            0   -1024.5087   0.27458301    -1019.221   0.54855846   -1015.1531            1   -1024.1821 
26459    1.9703753     1.396508 2.0327999e-15 6.6747401e-15    1.9582315    9.2801723    8.9535284    24.319245            0   -1024.5087   0.27422865   -1019.2213   0.54831647   -1015.2286            1   -1024.1821 
26559    1.6476382    1.4982951 2.0327999e-15 6.6569694e-15    1.5824777    9.2426063    8.9159624    24.339631            0   -1024.5087   0.27394673   -1019.2214   0.54854804   -1015.2661            1   -1024.1821 
26659     1.947728    1.3890766 2.0327999e-15 6.6747401e-15    1.9358471    9.2539359     8.927292    24.330223            0   -1024.5087   0.27403665   -1019.2214   0.54820104   -1015.2548            1   -1024.1821 
26759     1.708364     1.555924 2.0327999e-15 6.6569694e-15    1.6378641     9.227255    8.9006111    24.335381            0   -1024.5087   0.27396799   -1019.2214   0.54834837   -1015.2815            1   -1024.1821 
26859    2.0992319    1.6744839 2.0327999e-15 6.6569694e-15    2.0896517    9.2555692    8.9289253    24.316597            0   -1024.5087   0.27415067   -1019.2214   0.54819835   -1015.2532            1   -1024.1821 
26959    2.5707963      1.82135 2.0327999e-15 6.6569694e-15    2.5217345    9.2867366    8.9600927    24.278613            0   -1024.5087   0.27456748   -1019.2215   0.54839591    -1015.222            1   -1024.1821 
27059    2.6630337    1.8838872 2.0327999e-15 6.6747401e-15    2.6085664    9.2727063    8.9460625    24.277545            0   -1024.5087   0.27454942   -1019.2215   0.54841183    -1015.236            1   -1024.1821 
27159    2.7186945    1.9445945 2.0327999e-15 6.6569694e-15    2.6590036    9.2350699    8.9084261    24.292342            0   -1024.5087   0.27439647   -1019.2215   0.54829099   -1015.2737            1   -1024.1821 
27259     2.793909    1.9985024 2.0327999e-15 6.6747401e-15    2.7289646     9.217461    8.8908171     24.29049            0   -1024.5087   0.27444306   -1019.2214   0.54824891   -1015.2913            1   -1024.1821 
27359    2.8455025    2.0633109 2.0327999e-15 6.6569694e-15    2.7751327    9.1708095    8.8441656    24.308745            0   -1024.5087   0.27430388   -1019.2214   0.54808225   -1015.3379            1   -1024.1821 
27459    2.1908153    1.5583733 2.0327999e-15 6.6569694e-15    2.1793295    9.1060615    8.7794176    24.309189            0   -1024.5087   0.27420015   -1019.2215   0.54848479   -1015.4027            1   -1024.1821 
27559    2.2858614    1.6475189 2.0327999e-15 6.6569694e-15     2.276832    9.1243868     8.797743    24.305697            0   -1024.5087   0.27427082   -1019.2214    0.5481112   -1015.3844            1   -1024.1821 
27659    1.9043042    1.5995489 2.0327999e-15 6.6569694e-15    1.7534466    9.0406639      8.71402    24.315334            0   -1024.5087   0.27413742   -1019.2215   0.54897368   -1015.4681            1   -1024.1821 
27759    2.2635509     1.639356 2.0327999e-15 6.6569694e-15    2.2530284    9.0787356    8.7520918    24.311441            0   -1024.5087   0.27418261   -1019.2215   0.54809251     -1015.43            1   -1024.1821 
27859    1.9130401    1.5872417 2.0327999e-15 6.6569694e-15    1.7557156    8.9959335    8.6692896    24.306743            0   -1024.5087   0.27422149   -1019.2215   0.54908663   -1015.5128            1   -1024.1821 
27959    2.9317528    2.2123146 2.0327999e-15 6.6569694e-15    2.8543237    9.0891011    8.7624572    24.289073            0   -1024.5087   0.27434186   -1019.2214   0.54808664   -1015.4196            1   -1024.1821 
28059    1.9149257    1.5871149 2.0327999e-15 6.6747401e-15    1.7561042    9.0002607    8.6736168    24.298405            0   -1024.5087   0.27413156   -1019.2213   0.54878787   -1015.5085            1   -1024.1821 
28159    2.9525194    2.2170123 2.0327999e-15 6.6747401e-15    2.8744454    9.1007778    8.7741339    24.254615            0   -1024.5087   0.27453044    -1019.221   0.54827506    -1015.408            1   -1024.1821 
28259    2.2213424    1.6123206 2.0327999e-15 6.6747401e-15     2.210726    9.0019173    8.6752734    24.299788            0   -1024.5087   0.27399853    -1019.221   0.54817586   -1015.5068            1   -1024.1821 
28359    1.9456698    1.6022083 2.0327999e-15 6.6569694e-15    1.7768568    8.9992922    8.6726484    24.284119            0   -1024.5087   0.27408226   -1019.2206   0.54834803   -1015.5094            1   -1024.1821 
28459    1.9165907    1.5754232 2.0327999e-15 6.6747401e-15    1.7557138     8.955075    8.6284312    24.285332            0   -1024.5087   0.27404377   -1019.2206   0.54863477   -1015.5537            1   -1024.1821 
28559    1.9501415    1.5907431 2.0327999e-15 6.6747401e-15    1.7827888    8.9648374    8.6381935    24.278517            0   -1024.5087   0.27408919   -1019.2205   0.54863903   -1015.5439            1   -1024.1821 
28659    2.2009463    1.6013224 2.0327999e-15 6.6569694e-15    2.1889508    8.9539604    8.6273165    24.272742            0   -1024.5087   0.27412235   -1019.2204   0.54826767   -1015.5548            1   -1024.1821 
28759    2.0611851    1.5760398 2.0327999e-15 6.6569694e-15    1.8335621    8.9668307    8.6401868    24.264019            0   -1024.5087   0.27415099   -1019.2201   0.54854658   -1015.5419            1   -1024.1821 
28859    1.9117506    1.5772313 2.0327999e-15 6.6747401e-15    1.7561993    8.9028531    8.5762092    24.268312            0   -1024.5087   0.27405603   -1019.2199   0.54855272   -1015.6059            1   -1024.1821 
28959     1.923884    1.5672799 2.0327999e-15 6.6569694e-15    1.7610166    8.9150765    8.5884327    24.264085            0   -1024.5087   0.27402805   -1019.2195    0.5483816   -1015.5937            1   -1024.1821 
29059    1.9122822    1.5961461 2.0327999e-15 6.6569694e-15    1.7676858    8.8917503    8.5651064    24.255043            0   -1024.5087   0.27405868    -1019.219   0.54851642    -1015.617            1   -1024.1821 
29159    2.8615478    2.2826339 2.0327999e-15 6.6569694e-15    2.7753561      8.96728    8.6406362    24.218284            0   -1024.5087   0.27441138   -1019.2187    0.5481785   -1015.5415            1   -1024.1821 
29259    3.5063986    2.5798514 2.0327999e-15 6.6747401e-15    3.2939593    9.0330299     8.706386    24.177469            0   -1024.5087   0.27481285   -1019.2183   0.54851358   -1015.4757            1   -1024.1821 
29359    1.8930045    1.5483241 2.0327999e-15 6.6747401e-15    1.7929482    8.8664493    8.5398055    24.237895            0   -1024.5087   0.27405351   -1019.2179   0.54850783   -1015.6423            1   -1024.1821 
29459    2.0290654    1.5437629 2.0327999e-15 6.6569694e-15    1.8278103    8.8931997    8.5665558    24.229732            0   -1024.5087    0.2740762   -1019.2174    0.5484178   -1015.6155            1   -1024.1821 
29559     2.083557    1.5557572 2.0327999e-15 6.6569694e-15     1.856749     8.903749    8.5771052    24.222564            0   -1024.5087   0.27407485   -1019.2168   0.54819739    -1015.605            1   -1024.1821 
29659    2.9743045    2.3608803 2.0327999e-15 6.6569694e-15    2.8758435     8.957042    8.6303982    24.163768            0   -1024.5087   0.27465989   -1019.2162   0.54844998   -1015.5517            1   -1024.1821 
29759    2.0529244     1.548214 2.0327999e-15 6.6569694e-15    1.8464466    8.8841374    8.5574935    24.211984            0   -1024.5087   0.27400309   -1019.2153   0.54811527   -1015.6246            1   -1024.1821 
29859    2.9602485    2.3695769 2.0327999e-15 6.6747401e-15    2.8545749    8.9437748     8.617131    24.145354            0   -1024.5087   0.27465623   -1019.2143     0.548417    -1015.565            1   -1024.1821 
29959    2.2851468    1.7993899 2.0327999e-15 6.6747401e-15    2.2633079    8.8730562    8.5464124    24.184443            0   -1024.5087     0.274104   -1019.2133   0.54805425   -1015.6357            1   -1024.1821 
30059    2.0949459    1.5351733 2.0327999e-15 6.6569694e-15    1.8902536    8.8780719    8.5514281    24.182982            0   -1024.5087   0.27400449   -1019.2122   0.54809778   -1015.6307            1   -1024.1821 
30159     2.311494    1.8091306 2.0327999e-15 6.6569694e-15      2.28943    8.8745565    8.5479126     24.16637            0   -1024.5087   0.27409912   -1019.2112    0.5479702   -1015.6342            1   -1024.1821 
30259    2.1750593    2.0027788 2.0327999e-15 6.6747401e-15    2.1601534    8.8717178    8.5450739    24.149605            0   -1024.5087   0.27415406   -1019.2097   0.54810909    -1015.637            1   -1024.1821 
30359    1.9920811    1.7478394 2.0327999e-15 6.6569694e-15      1.91315    8.8514557    8.5248118    24.145405            0   -1024.5087   0.27407221   -1019.2081   0.54830761   -1015.6573            1   -1024.1821 
30459    2.0265622    1.7435625 2.0327999e-15 6.6569694e-15    1.9407347    8.8804344    8.5537905    24.135831            0   -1024.5087   0.27402326   -1019.2059   0.54806402   -1015.6283            1   -1024.1821 
30559    2.0295292    1.8403089 2.0327999e-15 6.6747401e-15    1.9599332    8.8616101    8.5349663    24.104959            0   -1024.5087   0.27420648   -1019.2033   0.54851466   -1015.6471            1   -1024.1821 
30659    2.1242862    1.7671084 2.0327999e-15 6.6569694e-15    1.9442699     8.895241    8.5685972    24.102144            0   -1024.5087   0.27409678   -1019.2013    0.5481591   -1015.6135            1   -1024.1821 
30759    2.3400216    2.1831362 2.0327999e-15 6.6569694e-15    2.3150378    8.9008228    8.5741789    24.082287            0   -1024.5087   0.27418718   -1019.1991   0.54813537   -1015.6079            1   -1024.1821 
30859    2.1908755    2.0374429 2.0327999e-15 6.6747401e-15    2.0796133    8.8785476    8.5519038     24.04291            0   -1024.5087   0.27452705   -1019.1976   0.54889548   -1015.6302            1   -1024.1821 
30959     2.050607    1.8195089 2.0327999e-15 6.6569694e-15    1.9740529    8.8864722    8.5598283    24.055766            0   -1024.5087   0.27421032   -1019.1944   0.54838912   -1015.6223            1   -1024.1821 
31059    2.3522634    2.1996336 2.0327999e-15 6.6569694e-15    2.3267145     8.913479    8.5868351     24.03515            0   -1024.5087   0.27426556   -1019.1907    0.5482802   -1015.5953            1   -1024.1821 
31159    2.0561115    1.8764365 2.0327999e-15 6.6569694e-15    1.9874863    8.8697978    8.5431539    24.027601            0   -1024.5087   0.27424718   -1019.1891   0.54869309   -1015.6389            1   -1024.1821 
31259    2.3444304    2.2105041 2.0327999e-15 6.6747401e-15    2.3186705    8.8993364    8.5726925    24.019879            0   -1024.5087   0.27422729   -1019.1874   0.54825219   -1015.6094            1   -1024.1821 
31359    2.3491942    2.2170941 2.0327999e-15 6.6569694e-15    2.3232732    8.8964655    8.5698216    24.009486            0   -1024.5087   0.27425084    -1019.186   0.54827394   -1015.6123            1   -1024.1821 
31459    2.3535658    2.2223643 2.0327999e-15 6.6747401e-15    2.3275158    8.8971161    8.5704722    23.996944            0   -1024.5087   0.27428468   -1019.1841    0.5483108   -1015.6116            1   -1024.1821 
31559    2.3567799    2.2262284 2.0327999e-15 6.6747401e-15    2.3306218    8.8992661    8.5726222    23.983655            0   -1024.5087   0.27431868   -1019.1819   0.54836015   -1015.6095            1   -1024.1821 
31659    2.0910846    1.9158026 2.0327999e-15 6.6747401e-15    2.0231539    8.8784952    8.5518514    23.963153            0   -1024.5087   0.27441172   -1019.1788   0.54881359   -1015.6302            1   -1024.1821 
31759     2.089502    1.8958517 2.0327999e-15 6.6569694e-15    2.0169555    8.8936022    8.5669583    23.950322            0   -1024.5087   0.27439199   -1019.1745   0.54875043   -1015.6151            1   -1024.1821 
31859    2.1906306     1.839127 2.0327999e-15 6.6569694e-15    2.0013295    8.9324525    8.6058086    23.938482            0   -1024.5087   0.27434159   -1019.1689   0.54854229   -1015.5763            1   -1024.1821 
31959    2.1194422    1.9609686 2.0327999e-15 6.6569694e-15    2.0529185    8.9002199     8.573576    23.913599            0   -1024.5087    0.2745113   -1019.1655   0.54905556   -1015.6085            1   -1024.1821 
32059    2.1052099    1.8880222 2.0327999e-15 6.6747401e-15    2.0290169    8.9194616    8.5928177     23.91086            0   -1024.5087   0.27442519   -1019.1621   0.54879818   -1015.5893            1   -1024.1821 
32159    2.1451432    1.9982469 2.0327999e-15 6.6747401e-15    2.0802006    8.8993032    8.5726593    23.887163            0   -1024.5087   0.27461849   -1019.1595   0.54925551   -1015.6094            1   -1024.1821 
32259    2.1212561    1.9079268 2.0327999e-15 6.6569694e-15    2.0451869    8.9273809     8.600737    23.884625            0   -1024.5087   0.27453901   -1019.1552   0.54893803   -1015.5814            1   -1024.1821 
32359      2.42698    2.2887535 2.0327999e-15 6.6569694e-15    2.3973757    8.9621444    8.6355006    23.856182            0   -1024.5087   0.27481502   -1019.1492   0.54910921   -1015.5466            1   -1024.1821 
32459    2.4036213    2.2936697 2.0327999e-15 6.6747401e-15     2.374547    8.9606876    8.6340437    23.859159            0   -1024.5087   0.27492164   -1019.1417   0.54926689   -1015.5481            1   -1024.1821 
32559    2.1899115    2.0443971 2.0327999e-15 6.6747401e-15    2.1233897    8.9565556    8.6299117    23.873513            0   -1024.5087   0.27564901   -1019.1315   0.55038968   -1015.5522            1   -1024.1821 
32659    2.2044352    2.0481242 2.0327999e-15 6.6747401e-15    2.1342747    9.0001673    8.6735234    23.881973            0   -1024.5087   0.27587882    -1019.114   0.55092799   -1015.5086            1   -1024.1821 
32759    2.4884446    2.3534862 2.0327999e-15 6.6747401e-15    2.3797517    9.0586935    8.7320497    23.825055            0   -1024.5087   0.27632162   -1019.1002   0.55166075     -1015.45            1   -1024.1821 
32859    3.8459038    2.8986517 2.0327999e-15 6.6747401e-15    3.4988036     9.244903    8.9182592    23.738349            0   -1024.5087   0.27690459     -1019.08    0.5519529   -1015.2638            1   -1024.1821 
32959    2.4746888    2.3416397 2.0327999e-15 6.6747401e-15    2.3651699    9.1906869    8.8640431    23.740963            0   -1024.5087   0.27640354   -1019.0579   0.55208794   -1015.3181            1   -1024.1821 
33059     2.228124    2.0200176 2.0327999e-15 6.652024e-15    2.0667244    9.2078266    8.8811828    23.760429            0   -1024.5087   0.27583605   -1019.0424   0.55160135   -1015.3009            1   -1024.1821 
33159    3.6091643    2.7402676 2.0327999e-15 6.6747401e-15    3.2933526    9.3356986    9.0090547    23.645995            0   -1024.5087   0.27688615   -1019.0314   0.55256738    -1015.173            1   -1024.1821 
33259    2.4553675    2.3212281 2.0327999e-15 6.6747401e-15    2.3449225    9.2618197    8.9351758    23.659746            0   -1024.5087   0.27644585   -1019.0227   0.55244518   -1015.2469            1   -1024.1821 
33359    2.2024788    2.0110996 2.0327999e-15 6.6569694e-15    2.0551966    9.2582731    8.9316293    23.680814            0   -1024.5087   0.27592692    -1019.015   0.55194443   -1015.2505            1   -1024.1821 
33459    3.5434714    2.6976915 2.0327999e-15 6.6747401e-15    3.2355822    9.3718552    9.0452113    23.570823            0   -1024.5087   0.27696064   -1019.0089   0.55283958   -1015.1369            1   -1024.1821 
33559    2.4509111    2.3152804 2.0327999e-15 6.6747401e-15    2.3395484    9.2959901    8.9693462    23.589116            0   -1024.5087   0.27648494   -1019.0032   0.55257729   -1015.2128            1   -1024.1821 
33659    2.1866672    2.0051627 2.0327999e-15 6.6569694e-15    2.0472961    9.2853265    8.9586826    23.608027            0   -1024.5087   0.27600482   -1018.9977   0.55214043   -1015.2234            1   -1024.1821 
33759    3.5021621    2.6704257 2.0327999e-15 6.6747401e-15    3.1985998     9.393307    9.0666631     23.50049            0   -1024.5087   0.27702245   -1018.9931   0.55300871   -1015.1154            1   -1024.1821 
33859    2.4474141    2.3105439 2.0327999e-15 6.6747401e-15    2.3353582    9.3186652    8.9920214    23.521058            0   -1024.5087   0.27652303   -1018.9886     0.552665   -1015.1901            1   -1024.1821 
33959    2.1748168    2.0005905 2.0327999e-15 6.6569694e-15    2.0410177    9.3049746    8.9783308    23.537869            0   -1024.5087   0.27606699    -1018.984   0.55227717   -1015.2038            1   -1024.1821 
34059    3.4692303    2.6483438 2.0327999e-15 6.6569694e-15    3.1691093    9.4100995    9.0834556    23.431494            0   -1024.5087   0.27707273     -1018.98   0.55313298   -1015.0986            1   -1024.1821 
34159    2.4441892    2.3061775 2.0327999e-15 6.6747401e-15    2.3315281     9.337519    9.0108751    23.453516            0   -1024.5087   0.27655324   -1018.9761   0.55272737   -1015.1712            1   -1024.1821 
34259    2.1645473    1.9968923 2.0327999e-15 6.6569694e-15     2.035644    9.3213519     8.994708    23.468721            0   -1024.5087   0.27611359   -1018.9719   0.55237937   -1015.1874            1   -1024.1821 
34359    3.4406948    2.6301458 2.0327999e-15 6.6747401e-15    3.1436064    9.4237383    9.0970944    23.363794            0   -1024.5087   0.27710672   -1018.9686   0.55322051    -1015.085            1   -1024.1821 
34459    2.4439126     2.304459 2.0327999e-15 6.6747401e-15    2.3304331    9.3532672    9.0266233    23.385978            0   -1024.5087   0.27657921   -1018.9651   0.55277986   -1015.1555            1   -1024.1821 
34559    2.1566193    1.9936617 2.0327999e-15 6.6569694e-15    2.0311346    9.3355836    9.0089398    23.400136            0   -1024.5087   0.27614653   -1018.9614   0.55244878   -1015.1732            1   -1024.1821 
34659     3.418103    2.6144663 2.0327999e-15 6.6747401e-15     3.123282    9.4366515    9.1100076    23.295591            0   -1024.5087   0.27713309   -1018.9583   0.55328638   -1015.0721            1   -1024.1821 
34759    2.4408847    2.3003771 2.0327999e-15 6.6747401e-15    2.3269032    9.3673236    9.0406797    23.318751            0   -1024.5087   0.27659027   -1018.9552   0.55280587   -1015.1414            1   -1024.1821 
34859    2.1493734    1.9904445 2.0327999e-15 6.6569694e-15    2.0267605    9.3476078     9.020964    23.332134            0   -1024.5087   0.27616618    -1018.952   0.55249843   -1015.1611            1   -1024.1821 
34959    3.4019645    2.6024527 2.0327999e-15 6.6747401e-15    3.1083825    9.4465019     9.119858    23.228649            0   -1024.5087   0.27714233   -1018.9496   0.55332265   -1015.0622            1   -1024.1821 
35059    2.4406734    2.2989175 2.0327999e-15 6.6747401e-15    2.3259545    9.3776813    9.0510374    23.252042            0   -1024.5087   0.27659437   -1018.9471   0.55282057   -1015.1311            1   -1024.1821 
35159     2.144826    1.9890763 2.0327999e-15 6.6747401e-15     2.024457    9.3560927    9.0294489    23.265601            0   -1024.5087   0.27616758   -1018.9443   0.55251112   -1015.1526            1   -1024.1821 
35259    3.3922657    2.5948047 2.0327999e-15 6.6569694e-15    3.0992783    9.4537295    9.1270856    23.162641            0   -1024.5087   0.27713945   -1018.9423   0.55332803    -1015.055            1   -1024.1821 
35359    2.4413858     2.298493 2.0327999e-15 6.6747401e-15    2.3260031    9.3855465    9.0589027    23.185514            0   -1024.5087   0.27659192   -1018.9402   0.55281926   -1015.1232            1   -1024.1821 
35459    2.1412499    1.9876803 2.0327999e-15 6.6569694e-15    2.0222622    9.3625304    9.0358865    23.199326            0   -1024.5087   0.27615182   -1018.9379   0.55249211   -1015.1462            1   -1024.1821 
35559    3.3867711    2.5888927 2.0327999e-15 6.6747401e-15    3.0939938    9.4590251    9.1323813     23.09615            0   -1024.5087   0.27711001   -1018.9366   0.55329063   -1015.0497            1   -1024.1821 
35659    2.4403029    2.2967625 2.0327999e-15 6.6747401e-15      2.32426    9.3886484    9.0620045     23.11721            0   -1024.5087    0.2765113   -1018.9376    0.5527346   -1015.1201            1   -1024.1821 
35759    2.1403876    1.9868149 2.0327999e-15 6.6569694e-15    2.0204697    9.3563847    9.0297409     23.12986            0   -1024.5087   0.27593137   -1018.9415   0.55221816   -1015.1524            1   -1024.1821 
35859    3.4182823    2.5971408 2.0327999e-15 6.6569694e-15    3.1212977    9.4441605    9.1175166    23.026873            0   -1024.5087   0.27685455   -1018.9455    0.5528905   -1015.0646            1   -1024.1821 
35959    2.4469181    2.3041236 2.0327999e-15 6.6747401e-15    2.3306526    9.3650604    9.0384165    23.048117            0   -1024.5087   0.27634309    -1018.947   0.55240887   -1015.1437            1   -1024.1821 
36059    2.1565517    1.9946972 2.0327999e-15 6.6569694e-15    2.0296827     9.339005    9.0123611    23.067912            0   -1024.5087   0.27584944   -1018.9462   0.55193255   -1015.1697            1   -1024.1821 
36159    3.4568178    2.6193199 2.0327999e-15 6.6747401e-15    3.1543321     9.438257    9.1116131    22.962834            0   -1024.5087   0.27684131   -1018.9449   0.55273138   -1015.0705            1   -1024.1821 
36259    2.4523686    2.3089976 2.0327999e-15 6.6747401e-15    2.3356061    9.3641488    9.0375049    22.980557            0   -1024.5087   0.27632047   -1018.9433   0.55231384   -1015.1446            1   -1024.1821 
36359    2.1576721    1.9957021 2.0327999e-15 6.6569694e-15    2.0302339    9.3401702    9.0135263    22.999419            0   -1024.5087    0.2757731   -1018.9416   0.55178909   -1015.1686            1   -1024.1821 
36459    3.4651885    2.6194593 2.0327999e-15 6.6747401e-15    3.1610305    9.4390546    9.1124107    22.892786            0   -1024.5087   0.27673925    -1018.941   0.55255413   -1015.0697            1   -1024.1821 
36559    2.4541363    2.3101236 2.0327999e-15 6.6747401e-15    2.3367288    9.3624837    9.0358398    22.908888            0   -1024.5087    0.2762141   -1018.9404    0.5521338   -1015.1463            1   -1024.1821 
[...]
92959    3.8538908    2.7798353 2.0327999e-15 6.6747401e-15    3.6615787    9.5948239      9.26818    14.070275            0   -1024.5087   0.23184244   -1019.3081   0.46480853   -1014.9139            1   -1024.1821 
93059    3.2268888    2.4027133 2.0327999e-15 6.6569694e-15    3.1990646    9.3061437    8.9794998    14.060969            0   -1024.5087   0.23197905   -1019.3092   0.46388128   -1015.2026            1   -1024.1821 
93159        3.857    2.7910553 2.0327999e-15 6.6747401e-15    3.6655233    9.5772162    9.2505724    14.075022            0   -1024.5087   0.23169044   -1019.3098   0.46436073   -1014.9315            1   -1024.1821 
93259    2.8575998    2.1239958 2.0327999e-15 6.6747401e-15      2.83838    9.1276575    8.8010137    14.036589            0   -1024.5087   0.23234155   -1019.3111   0.46379032   -1015.3811            1   -1024.1821 
93359    4.0793164    2.7682559 2.0327999e-15 6.8013758e-15    3.8545749    8.8703609     8.543717    13.903687            0   -1024.5087   0.23447272   -1019.3125   0.46418726   -1015.6384            1   -1024.1821 
93459    2.7291781    1.8094911 2.0327999e-15 6.7993367e-15    2.3947094    8.4248923    8.0982484    14.049952            0   -1024.5087   0.23306972   -1019.3226   0.48057231   -1016.0838            1   -1024.1821 
93559    5.6134989    3.4983788 2.0327999e-15 6.6731397e-15    3.9998944     12.58626    12.259616    11.746944            0   -1024.5087   0.37143419   -1019.0358    0.6560329   -1011.9225            1   -1024.1821 
93659    33.448593    25.323396 2.0327999e-15 6.6553792e-15    26.574473    18.054837    17.728194    14.161386            0   -1024.5087   0.26752755   -1018.7104   0.67442543   -1006.4539            1   -1024.1821 
93759    2.3466199    1.1182152 2.0327999e-15 6.8176262e-15    1.0435802     11.19485    10.868206    18.029513            0   -1024.5087   0.25832399   -1019.0364   0.52635824   -1013.3139            1   -1024.1821 
93859    6.0561565    4.6036788 2.0327999e-15 6.6503602e-15     5.401065     10.62644    10.299796    16.962446            0   -1024.5087   0.27082036   -1019.0815    0.5230587   -1013.8823            1   -1024.1821 
93959    3.2687364    2.1269851 2.0327999e-15 6.8414253e-15    2.6873033    10.235061    9.9084171    16.780705            0   -1024.5087    0.2639616   -1019.1239    0.5238071   -1014.2737            1   -1024.1821 
94059    1.4096797   0.98184442 2.0327999e-15 6.8241028e-15    1.1398256    10.378414     10.05177    16.319901            0   -1024.5087   0.26447675   -1019.1848   0.51932245   -1014.1303            1   -1024.1821 
94159     7.204733    5.4739687 2.0327999e-15  6.33074e-15    5.5046301    12.176737    11.850093    17.113951            0   -1024.5087   0.33521375   -1018.4531   0.75751241    -1012.332            1   -1024.1821 
94259    3.1943387    1.8416829 2.0327999e-15  6.33074e-15    2.0002754    12.001486    11.674842    17.622548            0   -1024.5087   0.34871531   -1018.8041   0.71107304   -1012.5073            1   -1024.1821 
94359    3.0700918    2.2567611 2.0381104e-15 6.5420901e-15    2.6285322    10.701109    10.374465    15.810115            0   -1024.5087   0.31230068   -1018.8209   0.59393573   -1013.8076            1   -1024.1821 
94459    3.9794718     1.597037 2.0381104e-15 6.5544933e-15    1.3798654    11.025291    10.698647    17.014157            0   -1024.5087   0.36152363   -1019.1335   0.68021109   -1013.4834            1   -1024.1821 
94559    7.5649606    5.2818348 2.0381104e-15 6.5544933e-15    5.7300413    12.511891    12.185247    17.359396            0   -1024.5087   0.35659142   -1018.8848   0.67763968   -1011.9968            1   -1024.1821 
94659    3.5085421    2.0313762 2.0327999e-15 6.4917047e-15    2.6743797    11.867786    11.541143    17.175217            0   -1024.5087   0.37535582   -1019.2877   0.77553102    -1012.641            1   -1024.1821 
94759    1.3744996   0.51282276 2.0327999e-15 6.8948101e-15   0.49355856    11.121316    10.794673    17.701859            0   -1024.5087   0.36176497   -1019.2593    0.6908839   -1013.3874            1   -1024.1821 
94859    12.326376     8.756428 2.0327999e-15 6.7470676e-15    9.1093048    14.924217    14.597573     15.06654            0   -1024.5087   0.39412444   -1018.9195   0.69171993   -1009.5845            1   -1024.1821 
94959    2.7776701    2.5349222 2.0327999e-15 6.750832e-15    2.5763537    10.128161    9.8015168    17.125067            0   -1024.5087   0.29397166   -1018.6841   0.55845587   -1014.3806            1   -1024.1821 
95059    3.2765992    2.5690547 2.0327999e-15 6.7454272e-15    3.0774018    9.5608757    9.2342319     16.98599            0   -1024.5087    0.2986531    -1019.082    0.5655307   -1014.9479            1   -1024.1821 
95159    2.8635624    2.6176058 2.0327999e-15 6.7454272e-15    2.8275486    9.9458494    9.6192055    17.224904            0   -1024.5087   0.30029281   -1019.1893   0.57726009   -1014.5629            1   -1024.1821 
95259    2.1722293     1.923701 2.0327999e-15 6.7454272e-15     2.162995    10.431955    10.105311    17.398262            0   -1024.5087   0.29702735   -1019.3759   0.58186718   -1014.0768            1   -1024.1821 
95359    2.0910308    2.0273171 2.0327999e-15 6.750832e-15    2.0743855    10.639807    10.313163    17.419983            0   -1024.5087   0.29632349   -1019.3546   0.58396583   -1013.8689            1   -1024.1821 
95459    2.2274368    1.8649037 2.0327999e-15 6.750832e-15    2.0248149    10.844111    10.517467    17.381574            0   -1024.5087   0.29919587   -1019.1775   0.58655687   -1013.6646            1   -1024.1821 
95559    1.2810165    1.1919656 2.0327999e-15 6.750832e-15    1.2282463    10.886126    10.559483    17.505586            0   -1024.5087   0.30297609    -1018.846   0.58941203   -1013.6226            1   -1024.1821 
95659    1.0763229    1.0011795 2.0327999e-15 6.7454272e-15    1.0080167    10.986148    10.659504    17.847083            0   -1024.5087   0.31259852   -1018.2662   0.59870456   -1013.5226            1   -1024.1821 
95759     2.342474    1.1671906 2.0327999e-15 6.6569694e-15    1.5954092      10.9788    10.652156    19.183091            0   -1024.5087   0.31812627   -1019.0153   0.63912425   -1013.5299            1   -1024.1821 
95859   0.76548821   0.57512335 2.0327999e-15 6.6569694e-15   0.62600247    10.829671    10.503027    19.190976            0   -1024.5087   0.32649879   -1018.8706   0.62596109   -1013.6791            1   -1024.1821 
95959    3.9638288    1.6598691 2.0327999e-15 6.7993367e-15    2.2872217    11.526567    11.199923    20.951466            0   -1024.5087     0.339089    -1024.164   0.66731364   -1012.9822            1   -1024.1821 
96059   0.86076145   0.72886677 2.0327999e-15 6.6553792e-15    0.7740606      10.8018    10.475157    21.278158            0   -1024.5087   0.33040265    -1024.367   0.66201651   -1013.7069            1   -1024.1821 
96159    1.4715368    1.2299715 2.0327999e-15 6.6553792e-15    1.4281735    10.518955    10.192311    21.348777            0   -1024.5087   0.32411923   -1024.5118   0.66088756   -1013.9898            1   -1024.1821 
96259    1.1249387   0.67275787 2.0381104e-15  6.42304e-15     1.020019    6.5079414    6.1812976    21.165172            0   -1024.5087   0.32805998     -1022.98   0.66360297   -1018.0008            1   -1024.1821 
96359    0.8056098   0.36783646 2.0381104e-15 5.7233337e-15   0.51791519    6.3723588    6.0457149    21.473641            0   -1024.5087    0.3302129   -1022.3583   0.66917211   -1018.1364            1   -1024.1821 
96459   0.64796174   0.33983198 2.0122314e-15 5.7772762e-15     0.497178    6.3683023    6.0416584    21.573719            0   -1024.5087   0.33043549   -1022.2916   0.67027551   -1018.1404            1   -1024.1821 
96559    0.3243157   0.17730356 2.0122314e-15 5.7919869e-15   0.28179469    6.3404398     6.013796    21.646199            0   -1024.5087   0.32932475   -1022.2257   0.66220044   -1018.1683            1   -1024.1821 
96659   0.49039883   0.19458193 2.0122314e-15 4.4697669e-15   0.28026603    6.3478922    6.0212484      21.6019            0   -1024.5087   0.32785384   -1022.4135     0.657789   -1018.1608            1   -1024.1821 
96759   0.39855421   0.19570446 2.0122314e-15 4.4554468e-15   0.26930454    6.3316155    6.0049717    21.543659            0   -1024.5087   0.32646062   -1022.6717   0.64640228   -1018.1771            1   -1024.1821 
96859    0.5316833   0.26405464 2.0122314e-15 4.4697669e-15   0.42389026    6.3516126    6.0249687    21.310001            0   -1024.5087   0.33012169    -1023.393   0.65576921   -1018.1571            1   -1024.1821 
96959   0.26784022   0.16100635 2.0122314e-15 6.8227241e-15   0.23981011    6.3383272    6.0116833    21.428705            0   -1024.5087   0.32845391   -1023.1663   0.66074785   -1018.1704            1   -1024.1821 
97059   0.34941778   0.19298825 2.0122314e-15 3.1977077e-15   0.28315981    6.3516885    6.0250446    21.569012            0   -1024.5087   0.32648943   -1022.9629   0.65485571   -1018.1571            1   -1024.1821 
97159   0.20377072  0.096438922 2.0122314e-15 3.211043e-15   0.13315683    6.3414724    6.0148286    21.565696            0   -1024.5087   0.32688701   -1023.0848   0.65444212   -1018.1673            1   -1024.1821 
97259   0.20300888  0.073907924 2.0122314e-15 3.2410123e-15   0.10847324     6.345265    6.0186211    21.641242            0   -1024.5087   0.32627164   -1023.0688    0.6523893   -1018.1635            1   -1024.1821 
97359   0.35861225   0.16233951 2.0122314e-15 3.1877875e-15   0.06083268    6.3463244    6.0196805    21.670164            0   -1024.5087   0.32704319   -1023.1675    0.6532752   -1018.1624            1   -1024.1821 
97459   0.20500385  0.017427576 2.0122314e-15 3.1877875e-15  0.027956105    6.3452439       6.0186    21.705435            0   -1024.5087   0.32702044   -1023.2231   0.65416189   -1018.1635            1   -1024.1821 
97559   0.19741562  0.033620079 2.0122314e-15 3.7339141e-15 0.0075845121     6.345204    6.0185601    21.712654            0   -1024.5087   0.32705323   -1023.3368   0.65390169   -1018.1635            1   -1024.1821 
97659   0.21540898  0.099302811 2.0122314e-15 3.7291347e-15 0.0050221025    6.3455028    6.0188589    21.712358            0   -1024.5087   0.32706266   -1023.4524   0.65416448   -1018.1632            1   -1024.1821 
97759   0.17835921  0.026001358 2.0122314e-15 3.7264534e-15  0.002749597    6.3451933    6.0185494    21.716074            0   -1024.5087   0.32707746   -1023.5454   0.65411337   -1018.1635            1   -1024.1821 
97859   0.16980821  0.011798323 2.0122314e-15 3.7156976e-15 0.0015476672    6.3451714    6.0185275    21.721189            0   -1024.5087   0.32714073   -1023.6327   0.65422604   -1018.1636            1   -1024.1821 
97959   0.16217075  0.051384474 2.0122314e-15 3.7331629e-15 0.00052424031    6.3452656    6.0186218    21.728664            0   -1024.5087   0.32720116   -1023.7073   0.65434982   -1018.1635            1   -1024.1821 
98059   0.15478568  0.031582837 2.0122314e-15 3.2410123e-15 0.00012119088     6.345206    6.0185622    21.737865            0   -1024.5087   0.32728013   -1023.7769    0.6544884   -1018.1635            1   -1024.1821 
98159   0.20416611    0.0940337 2.0122314e-15 3.1182826e-15 9.1427141e-05    6.3454769     6.018833    21.747659            0   -1024.5087    0.3273595   -1023.8375   0.65464786   -1018.1633            1   -1024.1821 
98259   0.15694274  0.072093343 2.0158771e-15 3.2418427e-15 2.0979724e-05    6.3453314    6.0186875    21.757302            0   -1024.5087   0.32743148   -1023.8969   0.65480086   -1018.1634            1   -1024.1821 
98359   0.13494621  0.019815792 2.0158771e-15 3.2418427e-15 6.8929048e-06    6.3451825    6.0185387    21.764741            0   -1024.5087   0.32748586   -1023.9462   0.65491813   -1018.1636            1   -1024.1821 
98459   0.12823887  0.032992662 2.0364087e-15 3.4168769e-15 5.9245891e-06    6.3452032    6.0185593    21.771754            0   -1024.5087   0.32753557   -1023.9986   0.65502944   -1018.1635            1   -1024.1821 
98559   0.12343466  0.026645717 2.0364087e-15 3.1568465e-15 3.1736035e-06    6.3451951    6.0185513    21.775633            0   -1024.5087   0.32755775   -1024.0399   0.65509095   -1018.1635            1   -1024.1821 
98659   0.12151756  0.025759688 2.0364087e-15 3.200634e-15 2.9214553e-06    6.3451904    6.0185466    21.775217            0   -1024.5087   0.32752785   -1024.0849   0.65508435   -1018.1636            1   -1024.1821 
98759   0.18338888  0.084399117 2.0364087e-15 3.1121235e-15 3.2804376e-06     6.345423    6.0187791    21.767932            0   -1024.5087   0.32747045   -1024.1374   0.65496891   -1018.1633            1   -1024.1821 
98859   0.11384789 0.0071421649 2.0364087e-15 3.1568465e-15 9.1721246e-07    6.3451722    6.0185283    21.769088            0   -1024.5087   0.32750217   -1024.1765   0.65498725   -1018.1636            1   -1024.1821 
98959   0.10892574  0.017394003 2.0364087e-15 3.1568465e-15 1.0228337e-06    6.3451807    6.0185368    21.771307            0   -1024.5087   0.32751779    -1024.213   0.65502241   -1018.1636            1   -1024.1821 
99059   0.10517254  0.022078298 2.0364087e-15 3.1756951e-15 7.8159489e-07    6.3451854    6.0185415    21.770956            0   -1024.5087   0.32750117   -1024.2487   0.65501685   -1018.1636            1   -1024.1821 
99159   0.10538432  0.047232126 2.0364087e-15 3.1121235e-15 1.8396975e-06     6.345238    6.0185941    21.762808            0   -1024.5087    0.3273986   -1024.2877   0.65488768   -1018.1635            1   -1024.1821 
99259   0.10056725  0.014675459 2.0364087e-15 3.1811159e-15 6.0586647e-07    6.3451776    6.0185337    21.753851            0   -1024.5087    0.3273532   -1024.3289   0.65474559   -1018.1636            1   -1024.1821 
99359  0.093920265  0.019707741 2.0122314e-15 3.1639902e-15 7.7262955e-07    6.3451823    6.0185384    21.752643            0   -1024.5087    0.3273633   -1024.3599   0.65472642   -1018.1636            1   -1024.1821 
99459  0.087287683 0.0072763176 2.0122314e-15 2.7992176e-15 5.5280628e-07    6.3451722    6.0185283    21.753723            0   -1024.5087   0.32737666   -1024.3847   0.65474355   -1018.1636            1   -1024.1821 
99559  0.081042004 0.0047495334 2.0122314e-15 2.7818611e-15 1.9219446e-07    6.3451709     6.018527    21.755054            0   -1024.5087    0.3273877   -1024.4048   0.65476468   -1018.1636            1   -1024.1821 
99659  0.074713794 0.0071608737 2.0122314e-15 2.8122651e-15 3.0601787e-07    6.3451722    6.0185283    21.756414            0   -1024.5087   0.32739765   -1024.4228   0.65478625   -1018.1636            1   -1024.1821 
99759  0.069010763  0.016075858 2.0122314e-15 2.8296106e-15 8.4736491e-07    6.3451792    6.0185353    21.757327            0   -1024.5087   0.32740345   -1024.4377   0.65480075   -1018.1636            1   -1024.1821 
99859  0.063337994 0.0037209374 2.0158771e-15 2.8507646e-15 1.7710707e-07    6.3451709     6.018527    21.757917            0   -1024.5087   0.32740681   -1024.4512   0.65481009   -1018.1636            1   -1024.1821 
99959  0.058248131 0.0054093843 2.0122314e-15 2.6332583e-15 3.3070876e-07    6.3451714    6.0185276    21.758317            0   -1024.5087   0.32740935   -1024.4621   0.65481646   -1018.1636            1   -1024.1821 
100059  0.053398956  0.020518738 2.0122314e-15 2.6664851e-15 9.9613356e-07    6.3451849     6.018541    21.758575            0   -1024.5087   0.32741093   -1024.4716   0.65482053   -1018.1636            1   -1024.1821 
100159  0.049084531 0.0051254718 2.0122314e-15 2.6332583e-15 1.4638286e-07    6.3451714    6.0185275    21.758686            0   -1024.5087   0.32741142   -1024.4793   0.65482231   -1018.1636            1   -1024.1821 
100259  0.045059285  0.011067374 2.0122314e-15 2.6332583e-15 4.2862319e-07    6.3451745    6.0185306    21.758718            0   -1024.5087    0.3274114   -1024.4858    0.6548228   -1018.1636            1   -1024.1821 
100359  0.041139481 0.0058738074 2.0122314e-15 2.6473609e-15 1.8662728e-07    6.3451716    6.0185277    21.758725            0   -1024.5087   0.32741129   -1024.4916   0.65482291   -1018.1636            1   -1024.1821 
100459  0.037677501  0.010416712 2.0122314e-15 2.6473609e-15 3.4839668e-07    6.3451738      6.01853    21.758707            0   -1024.5087   0.32741128   -1024.4962   0.65482264   -1018.1636            1   -1024.1821 
100559  0.034498429 0.0020356414 2.0122314e-15 2.6332583e-15 4.0998902e-08    6.3451706    6.0185267    21.758659            0   -1024.5087   0.32741049      -1024.5   0.65482187   -1018.1636            1   -1024.1821 
100659  0.031598794  0.011269585 2.0122314e-15 2.6332583e-15 3.6903238e-07    6.3451744    6.0185305    21.758609            0   -1024.5087   0.32741031   -1024.5032   0.65482107   -1018.1636            1   -1024.1821 
100759  0.028794597 0.0056867793 2.0158771e-15 2.6332583e-15 1.6965228e-07    6.3451715    6.0185277    21.758534            0   -1024.5087    0.3274097    -1024.506   0.65481988   -1018.1636            1   -1024.1821 
100859  0.040888314  0.018768031 2.0158771e-15 2.6181438e-15 7.1697304e-07    6.3451824    6.0185386      21.7585            0   -1024.5087   0.32740934   -1024.5083   0.65481934   -1018.1636            1   -1024.1821 
100959  0.023996109 0.0024296332 2.0158771e-15 2.6332583e-15 9.7388198e-08    6.3451707    6.0185268    21.758402            0   -1024.5087   0.32740852   -1024.5101   0.65481779   -1018.1636            1   -1024.1821 
101059  0.021928083 0.0012961124 2.0158771e-15 2.6181438e-15 1.9134694e-08    6.3451706    6.0185267     21.75833            0   -1024.5087   0.32740803   -1024.5117   0.65481665   -1018.1636            1   -1024.1821 
101159   0.02002587 0.0042935375 2.0158771e-15 2.6332583e-15 1.4225393e-07    6.3451711    6.0185272    21.758255            0   -1024.5087   0.32740745    -1024.513   0.65481546   -1018.1636            1   -1024.1821 
101259  0.018159357 0.0021869807 2.0158771e-15 2.6322908e-15 7.7214717e-08    6.3451707    6.0185268    21.758164            0   -1024.5087   0.32740666   -1024.5141   0.65481401   -1018.1636            1   -1024.1821 
101359  0.016491969 0.0070015438 2.0122314e-15 3.2422242e-15 2.2763171e-07     6.345172    6.0185282    21.758093            0   -1024.5087   0.32740624    -1024.515   0.65481289   -1018.1636            1   -1024.1821 
101459  0.014886162 0.00097880084 2.0158771e-15 3.1877875e-15 3.9879297e-08    6.3451706    6.0185267    21.758062            0   -1024.5087   0.32740606   -1024.5159    0.6548124   -1018.1636            1   -1024.1821 
101559  0.013559095 0.0035099616 2.0158771e-15 3.2312251e-15 1.2327819e-07    6.3451709     6.018527    21.758028            0   -1024.5087   0.32740586   -1024.5165   0.65481186   -1018.1636            1   -1024.1821 
101659  0.012368941 0.0047301002 2.0158771e-15 3.1877875e-15 1.6638667e-07    6.3451712    6.0185274    21.758018            0   -1024.5087   0.32740577    -1024.517   0.65481169   -1018.1636            1   -1024.1821 
101759   0.01210099 0.0055910316 2.0158771e-15 3.1892235e-15 1.8634977e-07    6.3451715    6.0185276    21.757981            0   -1024.5087   0.32740541   -1024.5174   0.65481111   -1018.1636            1   -1024.1821 
101859  0.010315265 0.0042945334 2.0158771e-15 3.2312251e-15 1.4609825e-07    6.3451711    6.0185272    21.757963            0   -1024.5087   0.32740539   -1024.5177   0.65481082   -1018.1636            1   -1024.1821 
101888 0.0099900754 0.0043812107 2.0158771e-15 4.7397338e-15 1.4240935e-07    6.3451711    6.0185273    21.757965            0   -1024.5087   0.32740545   -1024.5178   0.65481085   -1018.1636            1   -1024.1821 
