LAMMPS (3 Mar 2020)
Running on 6 partitions of processors
Step MaxReplicaForce MaxAtomForce GradV0 GradV1 GradVc EBF EBR RDT RD1 PE1 RD2 PE2 ... RDN PEN
0    87.083524    59.759324 1.5677241e-06  0.011591056    29.438742    30.722295    29.928217    3.9832341            0   -4117.9513          0.2   -4114.5595          0.4   -4092.1172          0.6    -4087.229          0.8   -4112.1812            1   -4117.1572 
10    2.4998784   0.82317229 3.6750891e-07  0.058843582    1.9372074    4.4567824    4.4016742    3.9769494            0   -4117.9513   0.20031606   -4116.3037   0.40063211   -4113.4945   0.60094766   -4113.5265    0.8012275   -4116.3326            1   -4117.8962 
20   0.52936023   0.22431497 2.5967572e-07 0.0039540216    1.6017219    4.2566887    4.2562471    3.9647017            0   -4117.9513   0.20093205   -4116.4366   0.40183544   -4113.6946   0.60252743    -4113.726   0.80228416   -4116.4861            1   -4117.9508 
30    0.1716529  0.017096496 1.6772463e-07 0.00063959519     1.652955    4.2446898    4.2446385    3.9638318            0   -4117.9513   0.20094277   -4116.4589   0.40176655   -4113.7066   0.60217584   -4113.7329   0.80165566   -4116.4965            1   -4117.9512 
40     0.136126 0.0088220199 1.0018078e-07 0.00016497132    1.6644232    4.2389927    4.2389866    3.9636155            0   -4117.9513   0.20086146   -4116.4738    0.4015226   -4113.7123   0.60172994   -4113.7342   0.80118606   -4116.5025            1   -4117.9513 
50   0.12170972 0.0065693551 6.6958021e-08 5.2493393e-05    1.6779961    4.2349991    4.2349981    3.9635578            0   -4117.9513   0.20075044   -4116.4843   0.40128547   -4113.7163   0.60138102   -4113.7344   0.80090642   -4116.5071            1   -4117.9513 
60   0.11704096  0.069206097 4.9707227e-08 1.7603982e-05    1.6916446     4.231907    4.2319068    3.9635434            0   -4117.9513   0.20064485   -4116.4927   0.40108164   -4113.7194   0.60112996   -4113.7344   0.80072428   -4116.5114            1   -4117.9513 
70   0.11246864  0.038199059 3.9866251e-08 5.5142575e-06    1.7016609    4.2294195    4.2294195    3.9635366            0   -4117.9513   0.20055842   -4116.4995    0.4009255   -4113.7218   0.60095251   -4113.7347   0.80060266   -4116.5152            1   -4117.9513 
80   0.11061546  0.060454505 3.1721955e-08 4.0935996e-08     1.712994    4.2268881    4.2268881    3.9635364            0   -4117.9513   0.20046959   -4116.5068   0.40077262   -4113.7244   0.60078715   -4113.7351   0.80049315   -4116.5197            1   -4117.9513 
90   0.10935394  0.013637756  2.54799e-08 1.8021634e-06    1.7233508    4.2244954    4.2244954    3.9635352            0   -4117.9513   0.20039266   -4116.5138   0.40064211   -4113.7268   0.60064942   -4113.7358   0.80040498   -4116.5243            1   -4117.9513 
100   0.10868903   0.01129079 2.0879396e-08 2.0941445e-06    1.7321066    4.2224606    4.2224606     3.963536            0   -4117.9513    0.2003321   -4116.5199   0.40054168   -4113.7288   0.60054583   -4113.7365   0.80033949   -4116.5287            1   -4117.9513 
110   0.17058072    0.1122889 1.5991768e-08 1.8390003e-06    1.7431113    4.2199533    4.2199533    3.9635435            0   -4117.9513   0.20026564   -4116.5277    0.4004318   -4113.7313   0.60043424   -4113.7373   0.80026971   -4116.5346            1   -4117.9513 
120    0.1077865  0.043122507 1.3377701e-08 1.5608968e-06    1.7493892    4.2183787    4.2183787    3.9635387            0   -4117.9513      0.20023   -4116.5327   0.40037506   -4113.7329   0.60037947   -4113.7383   0.80023406   -4116.5386            1   -4117.9513 
130   0.10746682  0.017269097 1.0936982e-08 1.2597142e-06    1.7564837    4.2166947    4.2166947    3.9635386            0   -4117.9513   0.20019614   -4116.5381   0.40031959   -4113.7346   0.60032494   -4113.7392   0.80019993   -4116.5431            1   -4117.9513 
140   0.23552761   0.16281574 8.5535809e-09 9.5112485e-07    1.7657002     4.214855     4.214855    3.9635632            0   -4117.9513   0.20016086   -4116.5444   0.40026087   -4113.7364   0.60027127     -4113.74   0.80016704   -4116.5484            1   -4117.9513 
150   0.17980813   0.12097524 6.7224077e-09 7.1628451e-07    1.7719293    4.2129692    4.2129692     3.963551            0   -4117.9513   0.20013376   -4116.5503   0.40021755   -4113.7383   0.60022869   -4113.7414   0.80014056   -4116.5537            1   -4117.9513 
160   0.10783758  0.065806009 5.5357828e-09 5.6922871e-07    1.7774012    4.2115578    4.2115578    3.9635438            0   -4117.9513   0.20011583    -4116.555   0.40018833   -4113.7397    0.6002007   -4113.7426   0.80012266   -4116.5578            1   -4117.9513 
170   0.15999018   0.10697713 4.3576474e-09 4.2920132e-07    1.7846802    4.2099395    4.2099395    3.9635522            0   -4117.9513   0.20009643   -4116.5606    0.4001568   -4113.7413   0.60016943   -4113.7437    0.8001042   -4116.5629            1   -4117.9513 
180     0.106632  0.063152283 3.5649592e-09 3.3931977e-07    1.7894161    4.2085244    4.2085244    3.9635448            0   -4117.9513   0.20008316   -4116.5651   0.40013478   -4113.7427   0.60014855   -4113.7449   0.80009085   -4116.5671            1   -4117.9513 
190   0.12229686  0.078090309 2.7757131e-09 2.5385251e-07    1.7964287    4.2069218    4.2069218    3.9635489            0   -4117.9513   0.20006886   -4116.5707   0.40011251   -4113.7443   0.60012382   -4113.7462   0.80007671   -4116.5722            1   -4117.9513 
200   0.10574305 0.0050242972 2.2436707e-09 1.988689e-07    1.8003837    4.2054233    4.2054233    3.9635403            0   -4117.9513   0.20005879   -4116.5753   0.40009346   -4113.7458   0.60010947   -4113.7475    0.8000663   -4116.5765            1   -4117.9513 
210   0.13737043  0.090066326 1.7267423e-09 1.4774242e-07    1.8083038    4.2038841    4.2038841     3.963552            0   -4117.9513    0.2000475   -4116.5808   0.40007741   -4113.7474   0.60009121   -4113.7488    0.8000565   -4116.5818            1   -4117.9513 
220   0.10528978  0.016236979 1.3534713e-09 1.124215e-07     1.812358    4.2022402    4.2022402    3.9635408            0   -4117.9513   0.20004002   -4116.5859   0.40006603    -4113.749   0.60007604   -4113.7503   0.80004765   -4116.5867            1   -4117.9513 
230   0.17095663    0.1158948 1.0440529e-09 8.425909e-08    1.8208366    4.2008224    4.2008224    3.9635603            0   -4117.9513   0.20003171   -4116.5912   0.40005085   -4113.7504   0.60006775   -4113.7515   0.80004149   -4116.5918            1   -4117.9513 
240    0.1049829  0.038894657 8.2865247e-10 6.535155e-08    1.8233957    4.1992064    4.1992064    3.9635426            0   -4117.9513   0.20002676   -4116.5959   0.40004272   -4113.7521   0.60005885    -4113.753   0.80003577   -4116.5963            1   -4117.9513 
250   0.10476767  0.035325329 6.6457585e-10 5.1368789e-08    1.8281564    4.1978546    4.1978546    3.9635423            0   -4117.9513   0.20002249   -4116.6003   0.40003609   -4113.7534   0.60005135   -4113.7543   0.80003135   -4116.6006            1   -4117.9513 
260   0.13593698  0.088776863 5.1890798e-10 3.929092e-08    1.8349795     4.196468     4.196468    3.9635523            0   -4117.9513   0.20001814   -4116.6052   0.40002987   -4113.7548   0.60004396   -4113.7556   0.80002739   -4116.6054            1   -4117.9513 
270   0.10454552  0.051493796 4.1912712e-10 3.1223697e-08    1.8383038     4.195084     4.195084    3.9635446            0   -4117.9513   0.20001539   -4116.6094   0.40002465   -4113.7562   0.60003924   -4113.7569   0.80002402   -4116.6095            1   -4117.9513 
280   0.10444809  0.061440142 3.2921846e-10 2.4113181e-08    1.8436892    4.1936473    4.1936473    3.9635463            0   -4117.9513   0.20001246   -4116.6141   0.40001984   -4113.7576   0.60003438   -4113.7583   0.80002101   -4116.6141            1   -4117.9513 
290   0.10376703  0.012637366 2.4709249e-10 1.7768373e-08    1.8488346    4.1918468    4.1918468    3.9635408            0   -4117.9513   0.20000983   -4116.6196     0.400012   -4113.7594   0.60003252     -4113.76   0.80001772   -4116.6195            1   -4117.9513 
300   0.10359954  0.019775451 1.9610534e-10 1.3915233e-08    1.8536808    4.1904785    4.1904785    3.9635411            0   -4117.9513   0.20000717    -4116.624   0.40001084   -4113.7608   0.60002719   -4113.7613   0.80001636   -4116.6238            1   -4117.9513 
310   0.10335941   0.00546277 1.538703e-10 1.0778731e-08    1.8585384    4.1890254    4.1890254    3.9635406            0   -4117.9513   0.20000564   -4116.6285   0.40000905   -4113.7622   0.60002323   -4113.7627   0.80001432   -4116.6284            1   -4117.9513 
320   0.10322535  0.026277926 1.188224e-10 8.2207038e-09    1.8639916    4.1874881    4.1874881    3.9635416            0   -4117.9513   0.20000427   -4116.6333   0.40000605   -4113.7638   0.60002112   -4113.7642   0.80001252   -4116.6331            1   -4117.9513 
330   0.10306804  0.032750469 9.310279e-11 6.3721185e-09    1.8687782    4.1860341    4.1860341    3.9635422            0   -4117.9513   0.20000309   -4116.6378   0.40000423   -4113.7652   0.60001885   -4113.7657   0.80001117   -4116.6376            1   -4117.9513 
340   0.12786834  0.081799907 7.2239778e-11 4.892773e-09    1.8752509    4.1846175    4.1846175    3.9635507            0   -4117.9513   0.20000173   -4116.6425   0.40000295   -4113.7666   0.60001651   -4113.7671    0.8000103   -4116.6422            1   -4117.9513 
350   0.10279773  0.047079112 5.7132799e-11 3.8361823e-09    1.8788636    4.1831239    4.1831239    3.9635439            0   -4117.9513   0.20000113   -4116.6468   0.40000114   -4113.7681   0.60001552   -4113.7685   0.80000916   -4116.6465            1   -4117.9513 
360   0.11564907   0.07160968 4.337982e-11 2.8848942e-09    1.8847743    4.1815393    4.1815393    3.9635484            0   -4117.9513   0.20000037   -4116.6518   0.40000205   -4113.7697   0.60001185   -4113.7701   0.80000821   -4116.6515            1   -4117.9513 
370   0.10231892  0.041354144 3.4014302e-11 2.244546e-09    1.8887778    4.1799844    4.1799844    3.9635432            0   -4117.9513   0.19999971   -4116.6561   0.39999669   -4113.7713   0.60001515   -4113.7716    0.8000076   -4116.6558            1   -4117.9513 
380   0.10196682   0.01423402 2.6890013e-11 1.7625412e-09    1.8933082    4.1785545    4.1785545    3.9635409            0   -4117.9513   0.19999904   -4116.6603   0.39999783   -4113.7727   0.60001231   -4113.7731   0.80000722     -4116.66            1   -4117.9513 
390   0.10179027  0.020380192 2.0863741e-11 1.3587743e-09    1.8982334    4.1770247    4.1770247    3.9635412            0   -4117.9513   0.19999859   -4116.6648   0.39999706   -4113.7742   0.60001156   -4113.7746   0.80000672   -4116.6645            1   -4117.9513 
400   0.10157203  0.014128494 1.6319588e-11 1.0561564e-09    1.9027688    4.1755306    4.1755306    3.9635409            0   -4117.9513   0.19999831   -4116.6692    0.3999969   -4113.7757   0.60001045   -4113.7761   0.80000622   -4116.6688            1   -4117.9513 
410   0.10136662 0.0073601436 1.2800613e-11 8.2274873e-10    1.9073102     4.174041     4.174041    3.9635406            0   -4117.9513   0.19999805   -4116.6735    0.3999964   -4113.7772   0.60000989   -4113.7776   0.80000582   -4116.6731            1   -4117.9513 
420   0.10114621 0.0054213007 9.6946657e-12 6.1915615e-10    1.9129614    4.1723406    4.1723406    3.9635406            0   -4117.9513   0.19999794   -4116.6783   0.39999562   -4113.7789   0.60000962   -4113.7792   0.80000529    -4116.678            1   -4117.9513 
430   0.13254373  0.084922618 7.2303277e-12 4.5996397e-10    1.9200612     4.170695     4.170695    3.9635517            0   -4117.9513   0.19999736   -4116.6834   0.39999618   -4113.7806   0.60000816   -4113.7809   0.80000532    -4116.683            1   -4117.9513 
440   0.10103902  0.055573317 5.5563046e-12 3.5107155e-10    1.9240419    4.1689923    4.1689923    3.9635452            0   -4117.9513   0.19999751    -4116.688   0.39999668   -4113.7823   0.60000699   -4113.7826   0.80000475   -4116.6876            1   -4117.9513 
450   0.10072754  0.041128569 4.4607899e-12 2.8210702e-10    1.9279751    4.1676238    4.1676238    3.9635431            0   -4117.9513   0.19999719   -4116.6917   0.39999517   -4113.7836   0.60000804    -4113.784   0.80000478   -4116.6913            1   -4117.9513 
460   0.10061772   0.04781679 3.5616043e-12 2.2333384e-10    1.9325255    4.1662069    4.1662069     3.963544            0   -4117.9513   0.19999696   -4116.6956   0.39999523   -4113.7851   0.60000754   -4113.7854   0.80000475   -4116.6953            1   -4117.9513 
470   0.10021559  0.017444012 2.7661611e-12 1.7279963e-10    1.9367594    4.1646077    4.1646077     3.963541            0   -4117.9513   0.19999712   -4116.6999   0.39999641   -4113.7867   0.60000594    -4113.787   0.80000433   -4116.6996            1   -4117.9513 
480   0.10012887  0.036315299 2.1334086e-12 1.3341705e-10    1.9417381    4.1630127    4.1630127    3.9635425            0   -4117.9513   0.19999664   -4116.7043   0.39999321   -4113.7883   0.60000879   -4113.7886   0.80000459   -4116.7039            1   -4117.9513 
490  0.099944027  0.034999111 1.7123005e-12 1.0647618e-10    1.9459574    4.1616155    4.1616155    3.9635424            0   -4117.9513   0.19999641    -4116.708    0.3999938   -4113.7897   0.60000793     -4113.79   0.80000466   -4116.7077            1   -4117.9513 
500  0.099750605  0.032087029 1.3679536e-12 8.500411e-11    1.9502279    4.1602071    4.1602071    3.9635421            0   -4117.9513   0.19999641   -4116.7118   0.39999387   -4113.7911   0.60000762   -4113.7914   0.80000452   -4116.7114            1   -4117.9513 
510  0.099558265  0.027180879 1.103498e-12 6.7834871e-11    1.9543487    4.1587883    4.1587883    3.9635417            0   -4117.9513   0.19999644   -4116.7155   0.39999384   -4113.7925   0.60000746   -4113.7928   0.80000436   -4116.7152            1   -4117.9513 
520  0.099366608  0.021005719 8.6846211e-13 5.3971582e-11    1.9584607    4.1573452    4.1573452    3.9635412            0   -4117.9513   0.19999647   -4116.7193   0.39999386   -4113.7939   0.60000725   -4113.7942   0.80000422   -4116.7189            1   -4117.9513 
530  0.099154929 0.0025904489 6.8894002e-13 4.2408458e-11    1.9629103    4.1558184    4.1558184    3.9635406            0   -4117.9513   0.19999654   -4116.7233   0.39999403   -4113.7954   0.60000692   -4113.7958   0.80000404   -4116.7229            1   -4117.9513 
540    0.1186954  0.072890784 4.9653702e-13 3.0092181e-11    1.9706572    4.1537432    4.1537432    3.9635488            0   -4117.9513   0.19999589   -4116.7289   0.39999183   -4113.7975   0.60000887   -4113.7978   0.80000456   -4116.7285            1   -4117.9513 
550  0.098841985  0.035294111 3.7308646e-13 2.3398599e-11    1.9740844    4.1520825    4.1520825    3.9635424            0   -4117.9513   0.19999602    -4116.733   0.39999451   -4113.7992   0.60000606   -4113.7995   0.80000435   -4116.7326            1   -4117.9513 
560  0.098608306  0.027941004 2.9435142e-13 1.7908787e-11    1.9790211    4.1503644    4.1503644    3.9635417            0   -4117.9513   0.19999626   -4116.7373   0.39999453   -4113.8009   0.60000592   -4113.8012   0.80000403    -4116.737            1   -4117.9513 
570  0.098417833  0.028049796 2.2601212e-13 1.3847021e-11    1.9839003    4.1487071    4.1487071    3.9635417            0   -4117.9513   0.19999637   -4116.7415   0.39999429   -4113.8026   0.60000608   -4113.8029   0.80000387   -4116.7411            1   -4117.9513 
580  0.098162936 0.0078361689 1.6986903e-13 1.0738538e-11    1.9880094     4.147037     4.147037    3.9635407            0   -4117.9513   0.19999647   -4116.7456   0.39999208   -4113.8042   0.60000821   -4113.8045   0.80000373   -4116.7452            1   -4117.9513 
590  0.097940704 0.0080187256 1.2391427e-13 7.841594e-12      1.99418    4.1450328    4.1450328    3.9635407            0   -4117.9513   0.19999673   -4116.7506   0.39999626   -4113.8062   0.60000398   -4113.8065   0.80000342   -4116.7503            1   -4117.9513 
600   0.14142401  0.091247606 9.781873e-14 5.8296158e-12    2.0014445    4.1432356    4.1432356    3.9635533            0   -4117.9513   0.19999583   -4116.7553   0.39999319    -4113.808   0.60000692   -4113.8083   0.80000426    -4116.755            1   -4117.9513 
610  0.097603957   0.02178359 7.2312526e-14 4.5656875e-12    2.0041101    4.1415001    4.1415001    3.9635413            0   -4117.9513   0.19999624   -4116.7592   0.39999332   -4113.8098   0.60000676   -4113.8101   0.80000382   -4116.7588            1   -4117.9513 
620  0.097351727 0.0055987319 4.5400404e-14 3.3448858e-12    2.0096937    4.1394551    4.1394551    3.9635406            0   -4117.9513   0.19999659   -4116.7641   0.39999291   -4113.8118   0.60000712   -4113.8121   0.80000344   -4116.7637            1   -4117.9513 
630   0.09724268  0.029704865 3.9062517e-14 2.5516296e-12    2.0150919    4.1376732    4.1376732    3.9635419            0   -4117.9513   0.19999646   -4116.7684   0.39999437   -4113.8136   0.60000562   -4113.8139   0.80000356    -4116.768            1   -4117.9513 
640  0.096971475  0.002537992 3.2148289e-14 1.9584272e-12    2.0192999     4.135918     4.135918    3.9635406            0   -4117.9513   0.19999643   -4116.7725   0.39999147   -4113.8153   0.60000852   -4113.8157   0.80000358   -4116.7721            1   -4117.9513 
650  0.096780944  0.011618636 9.3509931e-15 1.4650839e-12    2.0251579    4.1339415    4.1339415    3.9635408            0   -4117.9513   0.19999638   -4116.7771   0.39999337   -4113.8173   0.60000662   -4113.8176   0.80000362   -4116.7768            1   -4117.9513 
660  0.096609899   0.02128691 2.2390202e-14 1.1076202e-12    2.0304208    4.1320196    4.1320196    3.9635412            0   -4117.9513   0.19999636   -4116.7816   0.39999345   -4113.8192   0.60000651   -4113.8196   0.80000362   -4116.7812            1   -4117.9513 
670  0.096399279 0.0025490786 2.2188964e-14 8.6580795e-13    2.0347195    4.1303735    4.1303735    3.9635406            0   -4117.9513   0.19999635   -4116.7854   0.39999358   -4113.8209   0.60000636   -4113.8212   0.80000363    -4116.785            1   -4117.9513 
680  0.096232465  0.026481903 1.8984738e-14 6.3070013e-13    2.0409246    4.1280884    4.1280884    3.9635416            0   -4117.9513    0.1999967   -4116.7906   0.39999327   -4113.8232   0.60000669   -4113.8235   0.80000328   -4116.7902            1   -4117.9513 
690  0.096052522  0.021226086 1.3804772e-14 4.9666986e-13    2.0451123    4.1264919    4.1264919    3.9635412            0   -4117.9513   0.19999648   -4116.7942   0.39999343   -4113.8248   0.60000653   -4113.8251    0.8000035   -4116.7938            1   -4117.9513 
700  0.095870667  0.015520626 1.3395065e-14 3.8233939e-13    2.0494869    4.1248361    4.1248361    3.9635409            0   -4117.9513   0.19999642   -4116.7979   0.39999354   -4113.8264   0.60000639   -4113.8268   0.80000355   -4116.7975            1   -4117.9513 
710  0.095669427 0.0062350293 9.2676358e-15 2.9916914e-13    2.0544714    4.1230266    4.1230266    3.9635406            0   -4117.9513    0.1999965   -4116.8019   0.39999375   -4113.8282   0.60000619   -4113.8286   0.80000346   -4116.8015            1   -4117.9513 
720  0.095531146  0.021105777 1.7520017e-14 2.3330261e-13    2.0589439    4.1211959    4.1211959    3.9635412            0   -4117.9513   0.19999648   -4116.8059   0.39999312   -4113.8301   0.60000684   -4113.8304    0.8000035   -4116.8056            1   -4117.9513 
730  0.095322996  0.013741277 6.4559771e-15 1.7143495e-13    2.0636374      4.11936      4.11936    3.9635409            0   -4117.9513   0.19999653   -4116.8099   0.39999322   -4113.8319   0.60000673   -4113.8322   0.80000345   -4116.8096            1   -4117.9513 
740   0.14370742  0.091911051 1.1532734e-14  1.26923e-13    2.0705366    4.1174981    4.1174981    3.9635532            0   -4117.9513    0.1999961   -4116.8143   0.39999385   -4113.8338   0.60000609   -4113.8341   0.80000387   -4116.8139            1   -4117.9513 
750  0.095114587  0.040126988 1.1532734e-14 9.7902992e-14    2.0736526     4.115817     4.115817    3.9635431            0   -4117.9513   0.19999637   -4116.8176   0.39999348   -4113.8354   0.60000645   -4113.8358    0.8000036   -4116.8173            1   -4117.9513 
760  0.094999911   0.04613453 1.151629e-14 8.6008508e-14    2.0781259    4.1141261    4.1141261    3.9635439            0   -4117.9513   0.19999629   -4116.8213    0.3999934   -4113.8371   0.60000653   -4113.8375   0.80000367   -4116.8209            1   -4117.9513 
770   0.13925658  0.088158419  1.13311e-14 6.786708e-14    2.0837704    4.1122936    4.1122936    3.9635522            0   -4117.9513   0.19999607   -4116.8254   0.39999416    -4113.839   0.60000579   -4113.8393   0.80000389    -4116.825            1   -4117.9513 
780   0.09443739 0.0080351497 8.8453242e-15 4.1893409e-14    2.0874624    4.1101346    4.1101346    3.9635407            0   -4117.9513   0.19999674   -4116.8296   0.39999225   -4113.8411   0.60000766   -4113.8415   0.80000322   -4116.8292            1   -4117.9513 
790  0.094282455  0.019599529 9.5013301e-15 2.6442984e-14    2.0924047    4.1081687    4.1081687    3.9635412            0   -4117.9513   0.19999641   -4116.8337   0.39999319   -4113.8431   0.60000664   -4113.8434   0.80000353   -4116.8333            1   -4117.9513 
800  0.094075311 0.0045366956 1.0772909e-14 3.1207221e-14    2.0971246    4.1062825    4.1062825    3.9635406            0   -4117.9513   0.19999645   -4116.8376   0.39999366    -4113.845   0.60000608   -4113.8453   0.80000345   -4116.8372            1   -4117.9513 
810  0.094086092  0.046584811 1.5249713e-14 1.3544876e-14    2.1033311    4.1041052    4.1041052    3.9635439            0   -4117.9513   0.19999648   -4116.8421   0.39999532   -4113.8472    0.6000045   -4113.8475   0.80000342   -4116.8418            1   -4117.9513 
820   0.15558643   0.10057302 6.0550835e-15 2.7956605e-14     2.109964    4.1022592    4.1022592     3.963556            0   -4117.9513   0.19999577   -4116.8461   0.39999294    -4113.849   0.60000686   -4113.8494   0.80000412   -4116.8458            1   -4117.9513 
830   0.28323605   0.19687468 2.0671928e-14 2.3254607e-14    2.1233831    4.1000837    4.1000837    3.9636002            0   -4117.9513   0.19999415   -4116.8515   0.39999127   -4113.8512   0.60000852   -4113.8515   0.80000574   -4116.8512            1   -4117.9513 
840   0.13040108  0.080598489 6.2069599e-15 1.1256889e-14    2.1208552     4.097403     4.097403    3.9635504            0   -4117.9513   0.19999504   -4116.8556   0.39999128   -4113.8539   0.60000859   -4113.8542   0.80000488   -4116.8553            1   -4117.9513 
850  0.093185329  0.028341964 6.677859e-15 1.4022553e-14    2.1237601    4.0955696    4.0955696    3.9635419            0   -4117.9513   0.19999568   -4116.8591    0.3999941   -4113.8557   0.60000576    -4113.856   0.80000424   -4116.8588            1   -4117.9513 
860  0.092944545 0.0073098879 6.6930481e-15 6.2353857e-15    2.1278283    4.0936862    4.0936862    3.9635407            0   -4117.9513    0.1999961   -4116.8627   0.39999333   -4113.8576   0.60000649   -4113.8579   0.80000382   -4116.8624            1   -4117.9513 
870  0.092891437  0.039012035 4.5238771e-15 1.3973704e-14    2.1330897    4.0917097    4.0917097    3.9635429            0   -4117.9513    0.1999962   -4116.8666   0.39999303   -4113.8596   0.60000674   -4113.8599    0.8000037   -4116.8663            1   -4117.9513 
880   0.10589938  0.058883606 4.5238771e-15 1.4589967e-14     2.138204    4.0897485    4.0897485    3.9635457            0   -4117.9513   0.19999621   -4116.8704   0.39999331   -4113.8615   0.60000644   -4113.8619   0.80000367   -4116.8701            1   -4117.9513 
890  0.092429184 0.0036965854 8.7113138e-15 1.4026728e-14    2.1425471    4.0876248    4.0876248    3.9635406            0   -4117.9513   0.19999674   -4116.8744   0.39999332   -4113.8636   0.60000647    -4113.864   0.80000314    -4116.874            1   -4117.9513 
900  0.097936105  0.050734034 8.5827682e-15 1.2821285e-14    2.1482424    4.0853339    4.0853339    3.9635444            0   -4117.9513   0.19999643   -4116.8788   0.39999476   -4113.8659   0.60000507   -4113.8663   0.80000346   -4116.8785            1   -4117.9513 
910  0.092109837  0.018586227 8.9017659e-15 1.1869219e-14    2.1525762    4.0834394    4.0834394    3.9635411            0   -4117.9513    0.1999963   -4116.8823   0.39999326   -4113.8678   0.60000661   -4113.8682   0.80000361   -4116.8819            1   -4117.9513 
920   0.12555473  0.075692458 8.8689929e-15  6.90628e-15    2.1583093    4.0814708    4.0814708    3.9635495            0   -4117.9513   0.19999609   -4116.8861   0.39999293   -4113.8698   0.60000701   -4113.8701   0.80000385   -4116.8858            1   -4117.9513 
930  0.091834255  0.032940895 8.8689929e-15 7.8055899e-15    2.1614973    4.0794939    4.0794939    3.9635422            0   -4117.9513   0.19999633   -4116.8896   0.39999381   -4113.8718   0.60000619   -4113.8721   0.80000364   -4116.8893            1   -4117.9513 
940  0.091637193  0.026709056 8.8689929e-15 7.833554e-15    2.1658336    4.0775548    4.0775548    3.9635416            0   -4117.9513   0.19999642   -4116.8932   0.39999423   -4113.8737   0.60000583   -4113.8741   0.80000359   -4116.8928            1   -4117.9513 
950   0.22539179   0.15307016 9.8074147e-15 1.5314519e-14    2.1759029    4.0754106    4.0754106    3.9635737            0   -4117.9513   0.19999544   -4116.8976   0.39999257   -4113.8759   0.60000753   -4113.8761   0.80000463   -4116.8973            1   -4117.9513 
960   0.11616399  0.066928323 1.1257402e-14 1.1830459e-14    2.1771093    4.0731549    4.0731549    3.9635469            0   -4117.9513   0.19999601   -4116.9012   0.39999314   -4113.8781   0.60000797   -4113.8785   0.80000438   -4116.9009            1   -4117.9513 
970  0.091043984 0.0025158736 1.2166612e-14 7.0558312e-15    2.1809235    4.0710492    4.0710492    3.9635406            0   -4117.9513   0.19999646   -4116.9048   0.39999366   -4113.8802   0.60000725   -4113.8806   0.80000403   -4116.9045            1   -4117.9513 
980  0.090928642  0.030988053 1.2066625e-14 4.3460479e-15    2.1860875    4.0686702    4.0686702     3.963542            0   -4117.9513   0.19999657   -4116.9091   0.39999327   -4113.8826   0.60000727    -4113.883   0.80000381   -4116.9088            1   -4117.9513 
990  0.090721045  0.027028394 9.9656264e-15 4.1254536e-15    2.1913589    4.0663879    4.0663879    3.9635416            0   -4117.9513   0.19999693   -4116.9131   0.39999654   -4113.8849   0.60000391   -4113.8853   0.80000336   -4116.9128            1   -4117.9513 
1000  0.090500856 0.0026546383 5.3419257e-15 9.127548e-15    2.1964857    4.0642015    4.0642015    3.9635406            0   -4117.9513   0.19999702   -4116.9168   0.39999249   -4113.8871   0.60000798   -4113.8874   0.80000323   -4116.9165            1   -4117.9513 
1010   0.10473235  0.056426155 9.3691315e-15 2.7093415e-15    2.2022704    4.0619592    4.0619592    3.9635455            0   -4117.9513   0.19999643   -4116.9208   0.39999394   -4113.8893   0.60000655   -4113.8897   0.80000382   -4116.9205            1   -4117.9513 
1020  0.097499139  0.049145522 9.3691315e-15 2.7093415e-15     2.206079     4.060128     4.060128    3.9635444            0   -4117.9513   0.19999626   -4116.9239   0.39999383   -4113.8911   0.60000668   -4113.8915   0.80000402   -4116.9236            1   -4117.9513 
1030  0.099973399  0.051524362 9.3691315e-15 2.7093415e-15    2.2102747    4.0582543    4.0582543    3.9635448            0   -4117.9513    0.1999963   -4116.9271   0.39999406    -4113.893   0.60000639   -4113.8934   0.80000396   -4116.9268            1   -4117.9513 
1040  0.098739778  0.050153527 9.3691315e-15 2.7093415e-15    2.2141731    4.0563758    4.0563758    3.9635446            0   -4117.9513   0.19999637   -4116.9303     0.399994   -4113.8949   0.60000639   -4113.8953   0.80000386     -4116.93            1   -4117.9513 
1050  0.094028912  0.045109902 9.3691315e-15 2.7093415e-15    2.2180097    4.0544957    4.0544957    3.9635438            0   -4117.9513   0.19999644   -4116.9334   0.39999385   -4113.8968   0.60000647   -4113.8972   0.80000376   -4116.9331            1   -4117.9513 
1060  0.089735519  0.039437122 9.3691315e-15 2.7093415e-15    2.2220263    4.0526038    4.0526038     3.963543            0   -4117.9513    0.1999965   -4116.9366   0.39999375   -4113.8987   0.60000651    -4113.899   0.80000367   -4116.9363            1   -4117.9513 
1070  0.089558938  0.034574778 9.3691315e-15 2.7093415e-15    2.2260349    4.0507015    4.0507015    3.9635424            0   -4117.9513   0.19999653   -4116.9397    0.3999937   -4113.9006    0.6000065   -4113.9009   0.80000361   -4116.9394            1   -4117.9513 
1080  0.089392663  0.029754768 9.3691315e-15 2.7093415e-15    2.2300614    4.0487941    4.0487941    3.9635419            0   -4117.9513   0.19999656   -4116.9428   0.39999369   -4113.9025   0.60000648   -4113.9029   0.80000355   -4116.9425            1   -4117.9513 
1090  0.089222625  0.024499067 9.3691315e-15 2.7093415e-15    2.2340025    4.0468794    4.0468794    3.9635414            0   -4117.9513   0.19999657   -4116.9459   0.39999366   -4113.9044   0.60000647   -4113.9048   0.80000352   -4116.9456            1   -4117.9513 
1100  0.089056429  0.017304847 9.3691315e-15 2.7093415e-15    2.2378688    4.0449325    4.0449325     3.963541            0   -4117.9513    0.1999966   -4116.9491   0.39999359   -4113.9063   0.60000651   -4113.9067   0.80000347   -4116.9488            1   -4117.9513 
1110  0.088874613 0.0056745588 9.3691315e-15 2.7716765e-15    2.2420522    4.0427152    4.0427152    3.9635406            0   -4117.9513   0.19999676   -4116.9526   0.39999351   -4113.9086   0.60000652   -4113.9089   0.80000329   -4116.9523            1   -4117.9513 
1120   0.10018526  0.050761327 8.749558e-15 1.4559837e-15    2.2477977    4.0405731    4.0405731    3.9635446            0   -4117.9513   0.19999659   -4116.9561   0.39999423   -4113.9107   0.60000575   -4113.9111   0.80000342   -4116.9558            1   -4117.9513 
1130  0.099472152  0.050039466 8.749558e-15 1.4559837e-15    2.2524259    4.0383834    4.0383834    3.9635444            0   -4117.9513    0.1999966   -4116.9596   0.39999488   -4113.9129   0.60000506   -4113.9133   0.80000339   -4116.9593            1   -4117.9513 
1140  0.088405782  0.010205386 9.4044216e-15 1.4559837e-15    2.2561982    4.0361857    4.0361857    3.9635407            0   -4117.9513   0.19999678    -4116.963   0.39999556   -4113.9151   0.60000429   -4113.9155   0.80000317   -4116.9627            1   -4117.9513 
1150  0.088228421  0.004814779 9.3696576e-15 2.1994502e-15    2.2603146    4.0338194    4.0338194    3.9635406            0   -4117.9513   0.19999675   -4116.9667   0.39999321   -4113.9174   0.60000659   -4113.9178   0.80000318   -4116.9664            1   -4117.9513 
1160  0.088075635  0.014818282 9.3904772e-15 3.7149646e-15    2.2663272    4.0314087    4.0314087    3.9635409            0   -4117.9513   0.19999669   -4116.9704   0.39999481   -4113.9199   0.60000487   -4113.9202   0.80000318   -4116.9701            1   -4117.9513 
1170   0.13076265  0.077967713 1.058339e-14 6.3502631e-15    2.2717714    4.0290602    4.0290602    3.9635498            0   -4117.9513   0.19999605   -4116.9742   0.39999271   -4113.9222   0.60000672   -4113.9226   0.80000371   -4116.9739            1   -4117.9513 
1180   0.08772216  0.010876282 1.258785e-14 7.1157754e-15    2.2756556    4.0263963    4.0263963    3.9635408            0   -4117.9513   0.19999647    -4116.978   0.39998923   -4113.9249      0.60001   -4113.9253   0.80000322   -4116.9777            1   -4117.9513 
1190  0.089744502  0.038714428 8.8052734e-15 7.2425679e-15    2.2809886    4.0242502    4.0242502    3.9635428            0   -4117.9513   0.19999569   -4116.9813   0.39999196    -4113.927   0.60000714   -4113.9274   0.80000391    -4116.981            1   -4117.9513 
1200  0.087389044 0.0024177973 6.4069331e-15 7.0905376e-15    2.2854827     4.021744     4.021744    3.9635406            0   -4117.9513   0.19999631   -4116.9851   0.39999575   -4113.9295   0.60000334   -4113.9299   0.80000322   -4116.9848            1   -4117.9513 
1210  0.087168617 0.0064955673 1.0310132e-14 1.1658807e-14    2.2921795    4.0184008    4.0184008    3.9635406            0   -4117.9513   0.19999837   -4116.9901   0.40000133   -4113.9329    0.6000057   -4113.9333   0.80000315   -4116.9898            1   -4117.9513 
1220   0.12691929  0.072220278 6.2022728e-15 1.0397776e-14     2.297338    4.0157472    4.0157472    3.9635446            0   -4117.9513   0.19999988    -4116.994     0.400002   -4113.9355   0.60000687   -4113.9359   0.80000384   -4116.9938            1   -4117.9513 
1230  0.086887153  0.016090287 7.6336191e-15 1.0397776e-14    2.3013468    4.0137817    4.0137817    3.9635408            0   -4117.9513   0.20000036   -4116.9968    0.4000012   -4113.9375   0.60001091    -4113.938   0.80000484   -4116.9966            1   -4117.9513 
1240   0.11019483  0.058907811 6.2247138e-15 1.0397776e-14    2.3061045     4.011372     4.011372    3.9635447            0   -4117.9513    0.2000003   -4117.0004          0.4   -4113.9399   0.60001175   -4113.9404    0.8000056   -4117.0001            1   -4117.9513 
1250   0.12523115  0.072236803 6.2247138e-15 1.0397776e-14    2.3119305    4.0089435    4.0089435    3.9635477            0   -4117.9513   0.19999987   -4117.0039   0.40000078   -4113.9423   0.60000956   -4113.9428   0.80000594   -4117.0037            1   -4117.9513 
1260  0.086402646 0.0035598566 6.2247138e-15 1.0397776e-14    2.3149361    4.0068893    4.0068893    3.9635406            0   -4117.9513   0.19999969   -4117.0067   0.39999964   -4113.9444   0.60000978   -4113.9449   0.80000573   -4117.0065            1   -4117.9513 
1270  0.086270745  0.025388553 6.1650113e-15 7.329331e-15    2.3203203    4.0040511    4.0040511    3.9635415            0   -4117.9513   0.19999938   -4117.0107   0.39999795   -4113.9472   0.60000993   -4113.9477   0.80000528   -4117.0105            1   -4117.9513 
1280  0.086094099   0.01247852 6.1650113e-15 7.329331e-15    2.3243335    4.0019244    4.0019244    3.9635408            0   -4117.9513   0.19999893   -4117.0137   0.39999765   -4113.9493   0.60000936   -4113.9498   0.80000522   -4117.0135            1   -4117.9513 
1290  0.085932135 0.0099733562  6.14069e-15 7.229823e-15    2.3290329    3.9994306    3.9994306    3.9635407            0   -4117.9513   0.19999873   -4117.0172     0.399997   -4113.9518   0.60000908   -4113.9523   0.80000487   -4117.0169            1   -4117.9513 
1300  0.085778532 0.0024006717 6.1650113e-15 7.229823e-15    2.3336282    3.9971035    3.9971035    3.9635406            0   -4117.9513   0.19999846   -4117.0204   0.39999618   -4113.9542   0.60000904   -4113.9546   0.80000467   -4117.0202            1   -4117.9513 
1310  0.090960793  0.038350849 8.3091627e-15 6.4123185e-15    2.3388162    3.9940941    3.9940941    3.9635427            0   -4117.9513   0.19999801   -4117.0246   0.39999448   -4113.9572   0.60000925   -4113.9576   0.80000445   -4117.0243            1   -4117.9513 
1320   0.08760875  0.034204601 8.3091627e-15 6.4123185e-15    2.3429358    3.9918276    3.9918276    3.9635424            0   -4117.9513    0.1999974   -4117.0277   0.39999574   -4113.9594   0.60000726   -4113.9599   0.80000457   -4117.0274            1   -4117.9513 
1330  0.085309191  0.004825268 5.9744081e-15 6.3962508e-15    2.3472747    3.9895644    3.9895644    3.9635406            0   -4117.9513   0.19999739   -4117.0307   0.39999597   -4113.9617   0.60000658   -4113.9621   0.80000422   -4117.0304            1   -4117.9513 
1340   0.14760534  0.091019973 4.4717823e-15 6.6621486e-15    2.3543696     3.986957     3.986957    3.9635533            0   -4117.9513   0.19999671   -4117.0344   0.39999451   -4113.9643   0.60000758   -4113.9648    0.8000046   -4117.0341            1   -4117.9513 
1350  0.087887745  0.034100664 4.4717823e-15 6.6621486e-15     2.356232    3.9848516    3.9848516    3.9635423            0   -4117.9513   0.19999698    -4117.037   0.39999444   -4113.9664   0.60000742   -4113.9669   0.80000416   -4117.0367            1   -4117.9513 
1360  0.085264003  0.030402504 4.4717823e-15 6.6621486e-15    2.3599579    3.9827508    3.9827508    3.9635419            0   -4117.9513   0.19999695   -4117.0398   0.39999448   -4113.9685   0.60000715    -4113.969   0.80000404   -4117.0395            1   -4117.9513 
1370  0.084799835  0.025366762 4.4717823e-15 6.6621486e-15    2.3636991    3.9806345    3.9806345    3.9635415            0   -4117.9513   0.19999696   -4117.0426   0.39999441   -4113.9706   0.60000701   -4113.9711   0.80000391   -4117.0423            1   -4117.9513 
1380  0.084651495  0.019752165 4.4717823e-15 6.6621486e-15    2.3675911    3.9784787    3.9784787    3.9635411            0   -4117.9513   0.19999697   -4117.0454   0.39999429   -4113.9728   0.60000693   -4113.9732   0.80000378   -4117.0451            1   -4117.9513 
1390  0.084486703 0.0025862714 4.4717823e-15 6.6621486e-15    2.3716006    3.9762105    3.9762105    3.9635406            0   -4117.9513   0.19999702   -4117.0483   0.39999401   -4113.9751   0.60000704   -4113.9755   0.80000362    -4117.048            1   -4117.9513 
1400  0.084367532  0.028012432 4.4717823e-15 9.2373375e-15    2.3764979    3.9734633    3.9734633    3.9635417            0   -4117.9513   0.19999713   -4117.0519    0.3999944   -4113.9778   0.60000647   -4113.9782   0.80000341   -4117.0516            1   -4117.9513 
1410  0.084232153  0.026344851 4.4717823e-15 9.2373375e-15     2.380523    3.9712641    3.9712641    3.9635416            0   -4117.9513   0.19999696   -4117.0547    0.3999948     -4113.98   0.60000593   -4113.9804    0.8000035   -4117.0544            1   -4117.9513 
1420  0.084053503    0.0147254 4.3117176e-15 7.7164601e-15    2.3846921    3.9688326    3.9688326    3.9635409            0   -4117.9513   0.19999702   -4117.0578    0.3999952   -4113.9824   0.60000543   -4113.9829   0.80000337   -4117.0575            1   -4117.9513 
1430  0.090000772  0.035789725 4.3117176e-15 7.7164601e-15    2.3895366    3.9662286    3.9662286    3.9635425            0   -4117.9513   0.19999696   -4117.0611   0.39999446    -4113.985   0.60000606   -4113.9855   0.80000336   -4117.0608            1   -4117.9513 
1440  0.088816353  0.034045798 4.3117176e-15 7.7164601e-15    2.3933434    3.9640016    3.9640016    3.9635423            0   -4117.9513   0.19999685   -4117.0639    0.3999948   -4113.9873   0.60000563   -4113.9877   0.80000343   -4117.0636            1   -4117.9513 
1450  0.083608393 0.0069332039 4.3117176e-15 7.7164601e-15    2.3970192    3.9616795    3.9616795    3.9635406            0   -4117.9513   0.19999691   -4117.0668   0.39999512   -4113.9896   0.60000523     -4113.99   0.80000331   -4117.0665            1   -4117.9513 
1460   0.13122731  0.076277412 5.8048824e-15 8.1306904e-15    2.4036681    3.9585159    3.9585159    3.9635497            0   -4117.9513   0.19999679   -4117.0708   0.39999622   -4113.9927   0.60000406   -4113.9932   0.80000339   -4117.0705            1   -4117.9513 
1470  0.086743553  0.030546485 5.434338e-15 7.9416279e-15     2.406518    3.9562977    3.9562977     3.963542            0   -4117.9513    0.1999965   -4117.0734   0.39999329    -4113.995   0.60000703   -4113.9954   0.80000367   -4117.0731            1   -4117.9513 
1480  0.083179628  0.022418842 5.434338e-15 7.9416279e-15    2.4102533    3.9540154    3.9540154    3.9635413            0   -4117.9513    0.1999965   -4117.0762   0.39999444   -4113.9973   0.60000584   -4113.9977   0.80000367   -4117.0759            1   -4117.9513 
1490  0.082997227 0.0050555919 4.015817e-15 8.0910758e-15    2.4140964    3.9513474    3.9513474    3.9635406            0   -4117.9513   0.19999682   -4117.0794   0.39999195   -4113.9999   0.60000824   -4114.0004   0.80000332   -4117.0791            1   -4117.9513 
1500  0.084926988  0.027248696 5.434338e-15 8.2047831e-15     2.419255    3.9487344    3.9487344    3.9635417            0   -4117.9513   0.19999652   -4117.0825   0.39999429   -4114.0025   0.60000582    -4114.003   0.80000357   -4117.0823            1   -4117.9513 
1510  0.082700304  0.012264569 4.8866184e-15 8.2047831e-15    2.4232256    3.9462316    3.9462316    3.9635408            0   -4117.9513   0.19999659   -4117.0855   0.39999451    -4114.005   0.60000557   -4114.0055   0.80000347   -4117.0853            1   -4117.9513 
1520    0.1208228  0.066650206 4.8866184e-15 8.2017051e-15    2.4290254    3.9433162    3.9433162    3.9635474            0   -4117.9513    0.1999967   -4117.0891   0.39999388   -4114.0079   0.60000617   -4114.0084   0.80000334   -4117.0888            1   -4117.9513 
1530  0.082386551  0.012253646 4.015817e-15 9.5391036e-15     2.431832    3.9409481    3.9409481    3.9635408            0   -4117.9513   0.19999676   -4117.0917    0.3999932   -4114.0103   0.60000681   -4114.0108   0.80000326   -4117.0915            1   -4117.9513 
1540  0.082226205 0.0025874691 3.430455e-15 8.1668533e-15    2.4359449     3.938291     3.938291    3.9635406            0   -4117.9513   0.19999676   -4117.0948   0.39999344    -4114.013   0.60000652   -4114.0134   0.80000324   -4117.0946            1   -4117.9513 
1550  0.085947294   0.02776096 4.8866184e-15 8.1803107e-15    2.4413374    3.9352972    3.9352972    3.9635418            0   -4117.9513     0.199997   -4117.0983   0.39999499    -4114.016   0.60000495   -4114.0164   0.80000298   -4117.0981            1   -4117.9513 
1560   0.08192399  0.014915916 4.015817e-15 9.7696861e-15    2.4449975    3.9327673    3.9327673    3.9635409            0   -4117.9513   0.19999698   -4117.1012   0.39999287   -4114.0185     0.600007    -4114.019   0.80000298   -4117.1009            1   -4117.9513 
1570   0.14527239  0.087405924 3.430455e-15 8.1803107e-15    2.4516307    3.9300379    3.9300379    3.9635524            0   -4117.9513   0.19999638   -4117.1045   0.39999407   -4114.0212   0.60000579   -4114.0217   0.80000356   -4117.1042            1   -4117.9513 
1580   0.10312733   0.04887029 3.430455e-15 8.1803107e-15     2.453963    3.9276482    3.9276482    3.9635443            0   -4117.9513   0.19999661   -4117.1071   0.39999382   -4114.0236   0.60000603   -4114.0241   0.80000332   -4117.1068            1   -4117.9513 
1590  0.081450712 0.0023045383 5.2949001e-15 9.623503e-15    2.4582482    3.9246787    3.9246787    3.9635406            0   -4117.9513   0.19999709   -4117.1104   0.39999663   -4114.0266   0.60000323   -4114.0271   0.80000283   -4117.1101            1   -4117.9513 
1600   0.13316678  0.076453691 5.1970512e-15 1.1542128e-14    2.4651767    3.9209174    3.9209174    3.9635487            0   -4117.9513   0.19999663   -4117.1146   0.39999258   -4114.0303   0.60000836   -4114.0308   0.80000359   -4117.1144            1   -4117.9513 
1610   0.13667806  0.079596296 7.1721519e-15 1.1414708e-14    2.4698067    3.9183393    3.9183393      3.96355            0   -4117.9513   0.19999647   -4117.1175   0.39999486   -4114.0329   0.60000634   -4114.0334   0.80000404   -4117.1173            1   -4117.9513 
1620  0.095930236  0.040012427 7.1893172e-15 1.1414708e-14    2.4726561    3.9156979    3.9156979     3.963543            0   -4117.9513   0.19999694   -4117.1204   0.39999554   -4114.0356   0.60000566    -4114.036   0.80000365   -4117.1201            1   -4117.9513 
1630  0.080798891  0.014464965 7.1119501e-15 1.1410894e-14     2.476463    3.9131231    3.9131231    3.9635409            0   -4117.9513   0.19999711   -4117.1231   0.39999412   -4114.0381     0.600007   -4114.0386   0.80000349   -4117.1229            1   -4117.9513 
1640  0.080634781 0.0025101211 7.1119501e-15 1.1410894e-14     2.480949    3.9103673    3.9103673    3.9635406            0   -4117.9513   0.19999713   -4117.1261   0.39999408   -4114.0409   0.60000688   -4114.0414   0.80000342   -4117.1259            1   -4117.9513 
1650  0.083879403  0.022154358 6.8527684e-15 1.3631928e-14    2.4856168    3.9072057    3.9072057    3.9635413            0   -4117.9513    0.1999971   -4117.1295   0.39999362   -4114.0441   0.60000715   -4114.0445   0.80000337   -4117.1293            1   -4117.9513 
1660  0.083577185  0.021440846 7.0644281e-15 1.3451266e-14    2.4896188    3.9046661    3.9046661    3.9635413            0   -4117.9513   0.19999674   -4117.1322   0.39999453   -4114.0466   0.60000615   -4114.0471   0.80000367    -4117.132            1   -4117.9513 
1670   0.28299842   0.19179531 1.2453175e-14 1.4030775e-14    2.5027255    3.9009939    3.9009939    3.9635938            0   -4117.9513   0.19999517   -4117.1368   0.39999315   -4114.0503   0.60000758   -4114.0509   0.80000512   -4117.1366            1   -4117.9513 
1680   0.13743525  0.079811389 1.0116931e-14 1.1499287e-14    2.5013314    3.8978335    3.8978335    3.9635504            0   -4117.9513   0.19999576   -4117.1395   0.39999317   -4114.0534    0.6000064   -4114.0539   0.80000417   -4117.1393            1   -4117.9513 
1690  0.086991874  0.026743889 1.0116931e-14 1.1604948e-14    2.5046731    3.8949121    3.8949121    3.9635417            0   -4117.9513   0.19999639   -4117.1425   0.39999488   -4114.0564   0.60000472   -4114.0568   0.80000345   -4117.1422            1   -4117.9513 
1700  0.079972504  0.010744115 1.0116931e-14 1.1597838e-14    2.5085646     3.892236     3.892236    3.9635407            0   -4117.9513    0.1999966   -4117.1452   0.39999459    -4114.059   0.60000509   -4114.0595   0.80000322    -4117.145            1   -4117.9513 
1710  0.079491119 0.0079447906 1.0116931e-14 1.1474267e-14    2.5125142    3.8894638    3.8894638    3.9635407            0   -4117.9513   0.19999675    -4117.148   0.39999398   -4114.0618   0.60000575   -4114.0623   0.80000309   -4117.1478            1   -4117.9513 
1720  0.079326691 0.0058225344 1.0116931e-14 1.1467363e-14    2.5167583     3.886431     3.886431    3.9635406            0   -4117.9513   0.19999695   -4117.1511   0.39999368   -4114.0648   0.60000606   -4114.0653   0.80000291   -4117.1509            1   -4117.9513 
1730   0.11216658  0.056236176 1.0022641e-14  1.17518e-14    2.5220467    3.8832136    3.8832136    3.9635456            0   -4117.9513   0.19999695   -4117.1545   0.39999594   -4114.0681   0.60000383   -4114.0685   0.80000292   -4117.1542            1   -4117.9513 
1740  0.084648248  0.021334216 1.0141725e-14 1.1857533e-14    2.5252945     3.880727     3.880727    3.9635413            0   -4117.9513   0.19999681   -4117.1569   0.39999294   -4114.0705   0.60000676    -4114.071   0.80000304   -4117.1566            1   -4117.9513 
1750  0.079188958 0.0022797002 1.0141725e-14 1.1857533e-14    2.5290497    3.8779924    3.8779924    3.9635406            0   -4117.9513   0.19999675   -4117.1596   0.39999342   -4114.0733   0.60000629   -4114.0738    0.8000031   -4117.1594            1   -4117.9513 
1760   0.08488579  0.021241825 9.0548553e-15 1.0094491e-14    2.5345384    3.8742704    3.8742704    3.9635413            0   -4117.9513   0.19999716   -4117.1633   0.39999347    -4114.077   0.60000601   -4114.0775   0.80000266    -4117.163            1   -4117.9513 
1770  0.079607449 0.0033142955 8.2010389e-15 6.2712069e-15    2.5381754    3.8716408    3.8716408    3.9635406            0   -4117.9513    0.1999969   -4117.1658   0.39999345   -4114.0796   0.60000598   -4114.0801   0.80000285   -4117.1656            1   -4117.9513 
1780  0.079875776 0.0046553777 8.1649822e-15 6.3828008e-15    2.5425804    3.8686521    3.8686521    3.9635406            0   -4117.9513    0.1999969   -4117.1688    0.3999941   -4114.0826   0.60000543   -4114.0831   0.80000285   -4117.1685            1   -4117.9513 
1790  0.080828662 0.0091322266 1.0626458e-14 6.2883586e-15    2.5475632    3.8651593    3.8651593    3.9635407            0   -4117.9513   0.19999698   -4117.1722   0.39999613   -4114.0861   0.60000346   -4114.0866   0.80000279   -4117.1719            1   -4117.9513 
1800  0.082630986  0.014805102 8.9493066e-15 6.9590409e-15    2.5528355    3.8614733    3.8614733    3.9635409            0   -4117.9513   0.19999683   -4117.1757    0.3999929   -4114.0898   0.60000684   -4114.0903     0.800003   -4117.1754            1   -4117.9513 
1810  0.092600686  0.032780987 9.0830998e-15 8.016568e-15    2.5565235    3.8587346    3.8587346    3.9635423            0   -4117.9513   0.19999668   -4117.1783   0.39999424   -4114.0925   0.60000557    -4114.093   0.80000319   -4117.1781            1   -4117.9513 
1820  0.084978632  0.019792158 9.0830998e-15 8.016568e-15    2.5603141    3.8559855    3.8559855    3.9635412            0   -4117.9513   0.19999675   -4117.1809   0.39999464   -4114.0953   0.60000522   -4114.0958   0.80000315   -4117.1806            1   -4117.9513 
1830  0.082261031  0.012585687 8.9317179e-15 8.016568e-15    2.5646114    3.8530476    3.8530476    3.9635408            0   -4117.9513   0.19999693   -4117.1836   0.39999394   -4114.0982   0.60000599   -4114.0987     0.800003   -4117.1834            1   -4117.9513 
1840  0.081043872 0.0071732236 8.9317179e-15 8.016568e-15    2.5685504    3.8501808    3.8501808    3.9635406            0   -4117.9513   0.19999695   -4117.1863   0.39999384   -4114.1011   0.60000617   -4114.1016   0.80000301    -4117.186            1   -4117.9513 
1850   0.11148046  0.054344593 8.9317179e-15 8.016568e-15    2.5730837    3.8470032    3.8470032    3.9635453            0   -4117.9513   0.19999687   -4117.1893   0.39999389   -4114.1043   0.60000615   -4114.1048   0.80000313    -4117.189            1   -4117.9513 
1860   0.12399676  0.066433408 8.9317179e-15 8.016568e-15    2.5777094    3.8440285    3.8440285    3.9635476            0   -4117.9513   0.19999681    -4117.192   0.39999507   -4114.1072   0.60000499   -4114.1077   0.80000321   -4117.1918            1   -4117.9513 
1870  0.080787996 0.0022403776 9.0924139e-15 9.9118069e-15    2.5804955    3.8412051    3.8412051    3.9635406            0   -4117.9513    0.1999971   -4117.1945   0.39999325   -4114.1101   0.60000683   -4114.1106   0.80000293   -4117.1943            1   -4117.9513 
1880   0.11564291  0.057828603 1.0468485e-14 7.5478932e-15    2.5867713    3.8368393    3.8368393    3.9635453            0   -4117.9513   0.19999671   -4117.1985   0.39999112   -4114.1144   0.60001013   -4114.1149   0.80000356   -4117.1983            1   -4117.9513 
1890  0.098317662  0.039195389 1.048423e-14 7.6588191e-15    2.5905798    3.8339505    3.8339505    3.9635429            0   -4117.9513   0.19999646   -4117.2011   0.39999499   -4114.1173   0.60000634   -4114.1178   0.80000411   -4117.2009            1   -4117.9513 
1900  0.081438999 0.0042940558 1.0759533e-14 1.2504895e-14    2.5940651    3.8310293    3.8310293    3.9635406            0   -4117.9513   0.19999686   -4117.2036   0.39999362   -4114.1202   0.60000775   -4114.1208   0.80000379   -4117.2034            1   -4117.9513 
1910   0.13001293  0.071540093 1.0051151e-14 7.5133669e-15    2.5991405    3.8278898    3.8278898    3.9635488            0   -4117.9513   0.19999652   -4117.2065   0.39999461   -4114.1234   0.60000648   -4114.1239    0.8000041   -4117.2063            1   -4117.9513 
1920   0.10647343  0.048328417 1.0051151e-14 5.6197107e-15    2.6024914    3.8250072    3.8250072    3.9635443            0   -4117.9513   0.19999678    -4117.209   0.39999461   -4114.1263   0.60000627   -4114.1268   0.80000376   -4117.2088            1   -4117.9513 
1930  0.091952572   0.02995425 9.8345946e-15 7.5133669e-15    2.6063501    3.8220995    3.8220995     3.963542            0   -4117.9513     0.199997   -4117.2115   0.39999588   -4114.1292   0.60000485   -4114.1297   0.80000346   -4117.2113            1   -4117.9513 
1940  0.082178246 0.0062695711 7.1597962e-15 5.6197107e-15    2.6098352    3.8190723    3.8190723    3.9635406            0   -4117.9513   0.19999719   -4117.2141   0.39999452   -4114.1322   0.60000607   -4114.1327   0.80000318   -4117.2139            1   -4117.9513 
1950  0.092325628  0.030171409 7.1597962e-15 5.6197107e-15    2.6139574    3.8160509    3.8160509     3.963542            0   -4117.9513   0.19999707   -4117.2167   0.39999396   -4114.1352   0.60000648   -4114.1357   0.80000322   -4117.2165            1   -4117.9513 
1960   0.14217561  0.081760429 7.1597962e-15 7.5133669e-15    2.6187796    3.8130328    3.8130328    3.9635512            0   -4117.9513   0.19999667   -4117.2194   0.39999486   -4114.1382   0.60000549   -4114.1388   0.80000356   -4117.2192            1   -4117.9513 
1970  0.082903458 0.0080141112 1.1287322e-14 7.5836435e-15    2.6225717    3.8092988    3.8092988    3.9635407            0   -4117.9513   0.19999735   -4117.2224    0.3999925    -4114.142   0.60000785   -4114.1425   0.80000283   -4117.2222            1   -4117.9513 
1980  0.083498596  0.010160389 7.2054393e-15 7.4793982e-15    2.6264764    3.8062302    3.8062302    3.9635407            0   -4117.9513   0.19999686    -4117.225   0.39999403    -4114.145   0.60000639   -4114.1456   0.80000334   -4117.2248            1   -4117.9513 
1990    0.1024785  0.042516179 2.3033936e-14 2.0733384e-14    2.6324106    3.8016382    3.8016382     3.963543            0   -4117.9513   0.19999768   -4117.2289   0.39999799   -4114.1496   0.60000231   -4114.1502   0.80000252   -4117.2287            1   -4117.9513 
2000  0.097038589  0.035660334 1.0196473e-14 9.8638291e-15    2.6363069    3.7985153    3.7985153    3.9635424            0   -4117.9513   0.19999694   -4117.2315    0.3999951   -4114.1528   0.60000695   -4114.1533   0.80000381   -4117.2312            1   -4117.9513 
2010  0.086963747  0.018950403 7.4049808e-15 9.7163545e-15    2.6398201    3.7955102    3.7955102    3.9635411            0   -4117.9513    0.1999971   -4117.2339   0.39999524   -4114.1558   0.60000669   -4114.1563   0.80000384   -4117.2337            1   -4117.9513 
2020  0.083086824 0.0051643962 7.3337388e-15 9.7156297e-15     2.643589    3.7924847    3.7924847    3.9635406            0   -4117.9513   0.19999726   -4117.2364   0.39999514   -4114.1588   0.60000651   -4114.1593   0.80000365   -4117.2362            1   -4117.9513 
2030   0.12112588  0.062167539 7.4250323e-15 8.9657975e-15    2.6481946    3.7892818    3.7892818    3.9635467            0   -4117.9513   0.19999706    -4117.239   0.39999461    -4114.162   0.60000676   -4114.1625   0.80000375   -4117.2388            1   -4117.9513 
2040  0.083897896 0.0085411542 1.3125373e-14 1.1361983e-14    2.6516228    3.7859761    3.7859761    3.9635407            0   -4117.9513   0.19999751   -4117.2416   0.39999457   -4114.1653   0.60000656   -4114.1658   0.80000318   -4117.2414            1   -4117.9513 
2050   0.12427994  0.065010459 7.461619e-15 1.0491724e-14     2.656384     3.782621     3.782621    3.9635473            0   -4117.9513   0.19999716   -4117.2444   0.39999412   -4114.1686   0.60000681   -4114.1692   0.80000341   -4117.2441            1   -4117.9513 
2060   0.10404953  0.043777194 7.3198334e-15 1.0492788e-14    2.6596851    3.7794754    3.7794754    3.9635437            0   -4117.9513   0.19999714   -4117.2468   0.39999578   -4114.1718     0.600005   -4114.1723   0.80000334   -4117.2466            1   -4117.9513 
2070   0.10005514   0.03881015 7.3198334e-15 1.0492788e-14    2.6633348    3.7764454    3.7764454     3.963543            0   -4117.9513   0.19999711   -4117.2492   0.39999569   -4114.1748   0.60000499   -4114.1754    0.8000033    -4117.249            1   -4117.9513 
2080  0.085545466  0.013150735 6.2485356e-15 9.1042919e-15    2.6674942    3.7728795    3.7728795    3.9635408            0   -4117.9513   0.19999745   -4117.2519   0.39999188   -4114.1784   0.60000868   -4114.1789    0.8000029   -4117.2517            1   -4117.9513 
2090   0.15615403  0.092679878 6.5520953e-15 1.3420101e-14    2.6737295    3.7691314    3.7691314    3.9635545            0   -4117.9513    0.1999966    -4117.255   0.39999571   -4114.1821   0.60000474   -4114.1827   0.80000368   -4117.2548            1   -4117.9513 
2100  0.086218621  0.014367908 7.5466469e-15 1.0724539e-14    2.6755184    3.7661686    3.7661686    3.9635409            0   -4117.9513   0.19999711   -4117.2572   0.39999499   -4114.1851   0.60000543   -4114.1857   0.80000313   -4117.2569            1   -4117.9513 
2110    0.0851052  0.010113762 7.5466469e-15 1.0724539e-14    2.6792142    3.7630151    3.7630151    3.9635407            0   -4117.9513   0.19999714   -4117.2596   0.39999444   -4114.1883   0.60000592   -4114.1888   0.80000308   -4117.2594            1   -4117.9513 
2120   0.11910744  0.059301337 7.5521318e-15 1.0530016e-14    2.6835245    3.7596421    3.7596421    3.9635462            0   -4117.9513   0.19999701   -4117.2622   0.39999382   -4114.1916    0.6000065   -4114.1922   0.80000318    -4117.262            1   -4117.9513 
2130   0.13136289  0.070979541 7.5466469e-15 1.0530016e-14    2.6875772    3.7564872    3.7564872    3.9635487            0   -4117.9513   0.19999674   -4117.2646   0.39999475   -4114.1948   0.60000556   -4114.1953   0.80000343   -4117.2644            1   -4117.9513 
2140    0.1053586  0.044664996 7.5466469e-15 1.0530016e-14    2.6906431    3.7533105    3.7533105    3.9635437            0   -4117.9513   0.19999701   -4117.2669   0.39999562    -4114.198   0.60000466   -4114.1985   0.80000315   -4117.2667            1   -4117.9513 
2150   0.09970506  0.037460596 7.5466469e-15 1.0530016e-14    2.6941084    3.7501999    3.7501999    3.9635428            0   -4117.9513   0.19999703   -4117.2692   0.39999561   -4114.2011   0.60000462   -4114.2016   0.80000311    -4117.269            1   -4117.9513 
2160   0.08743605  0.015960223 7.3002844e-15 1.056972e-14    2.6979315     3.746644     3.746644     3.963541            0   -4117.9513   0.19999725   -4117.2718   0.39999348   -4114.2046   0.60000666   -4114.2052   0.80000286   -4117.2716            1   -4117.9513 
2170   0.13471937  0.073623298 1.1158907e-14 1.0011801e-14    2.7039319    3.7426976    3.7426976    3.9635496            0   -4117.9513   0.19999705   -4117.2748   0.39999656   -4114.2086   0.60000356   -4114.2091   0.80000302   -4117.2746            1   -4117.9513 
2180  0.085148561 0.0062416266 6.1729028e-15 1.0011801e-14     2.705615    3.7398568    3.7398568    3.9635406            0   -4117.9513   0.19999688   -4117.2768   0.39999437   -4114.2114   0.60000569    -4114.212   0.80000317   -4117.2766            1   -4117.9513 
2190   0.12044815  0.059887249 7.4010525e-15 1.0291791e-14    2.7104354    3.7363066    3.7363066    3.9635465            0   -4117.9513   0.19999652   -4117.2794   0.39999304    -4114.215   0.60000697   -4114.2155    0.8000035   -4117.2792            1   -4117.9513 
2200   0.12747629  0.066861144 7.4010525e-15 1.0291791e-14    2.7143577    3.7332784    3.7332784     3.963548            0   -4117.9513   0.19999643   -4117.2816   0.39999418    -4114.218   0.60000581   -4114.2186   0.80000357   -4117.2814            1   -4117.9513 
2210   0.11781725  0.057462229 7.4010525e-15 1.0291791e-14    2.7179853    3.7299354    3.7299354    3.9635461            0   -4117.9513   0.19999669    -4117.284   0.39999504   -4114.2213   0.60000494   -4114.2219    0.8000033   -4117.2838            1   -4117.9513 
2220   0.08780612  0.015186261 7.1692316e-15 1.0291791e-14    2.7200815    3.7268576    3.7268576    3.9635409            0   -4117.9513   0.19999697   -4117.2861   0.39999369   -4114.2244   0.60000627    -4114.225   0.80000302   -4117.2859            1   -4117.9513 
2230  0.086461154   0.01010631 7.1306859e-15 1.0291791e-14    2.7236808    3.7235271    3.7235271    3.9635407            0   -4117.9513   0.19999695   -4117.2885    0.3999939   -4114.2277   0.60000604   -4114.2283   0.80000302   -4117.2883            1   -4117.9513 
2240   0.08674887  0.010746842 7.1306859e-15 1.0291791e-14    2.7269874    3.7202711    3.7202711    3.9635408            0   -4117.9513   0.19999696   -4117.2907   0.39999368    -4114.231   0.60000624   -4114.2316   0.80000301   -4117.2905            1   -4117.9513 
2250   0.11427726  0.052956247 7.1306859e-15 1.0291791e-14    2.7321788     3.716764     3.716764    3.9635452            0   -4117.9513   0.19999684   -4117.2932   0.39999387   -4114.2345   0.60000604   -4114.2351   0.80000312    -4117.293            1   -4117.9513 
2260   0.08995526  0.019287143 7.2512877e-15 1.0291791e-14    2.7350078    3.7136173    3.7136173    3.9635412            0   -4117.9513   0.19999701   -4117.2954   0.39999437   -4114.2376    0.6000055   -4114.2382   0.80000294   -4117.2952            1   -4117.9513 
2270  0.086159729  0.006082997 7.1306859e-15 1.0291791e-14    2.7385685    3.7103229    3.7103229    3.9635406            0   -4117.9513   0.19999698   -4117.2976   0.39999438   -4114.2409   0.60000545   -4114.2415   0.80000295   -4117.2974            1   -4117.9513 
2280   0.12238017  0.060876032 7.1306859e-15 1.0291791e-14    2.7433993    3.7065451    3.7065451    3.9635466            0   -4117.9513   0.19999686   -4117.3002   0.39999374   -4114.2447   0.60000604   -4114.2453   0.80000305      -4117.3            1   -4117.9513 
2290    0.1048901  0.041593399 7.1306859e-15 1.0291791e-14    2.7465809    3.7032966    3.7032966    3.9635435            0   -4117.9513   0.19999696   -4117.3024   0.39999547    -4114.248   0.60000428   -4114.2485   0.80000292   -4117.3022            1   -4117.9513 
2300  0.086827968 0.0078729394 7.1306859e-15 1.0291791e-14    2.7497404    3.6998303    3.6998303    3.9635407            0   -4117.9513    0.1999971   -4117.3047   0.39999522   -4114.2514   0.60000442    -4114.252   0.80000274   -4117.3045            1   -4117.9513 
2310   0.17263618   0.10400018 7.1462531e-15 1.0291791e-14    2.7561453    3.6959202    3.6959202    3.9635581            0   -4117.9513   0.19999634   -4117.3075   0.39999433   -4114.2553   0.60000529   -4114.2559   0.80000346   -4117.3073            1   -4117.9513 
2320  0.088054168  0.011910227 7.1757297e-15 1.0291791e-14    2.7572405    3.6927859    3.6927859    3.9635408            0   -4117.9513   0.19999689   -4117.3094   0.39999469   -4114.2585   0.60000488   -4114.2591   0.80000289   -4117.3092            1   -4117.9513 
2330   0.11100223  0.048478401 7.291362e-15 1.0291791e-14    2.7612235    3.6892201    3.6892201    3.9635446            0   -4117.9513   0.19999687   -4117.3118   0.39999355    -4114.262   0.60000606   -4114.2626   0.80000292   -4117.3116            1   -4117.9513 
2340   0.11927213   0.05686905 7.1462531e-15 1.0291791e-14    2.7652225    3.6857676    3.6857676     3.963546            0   -4117.9513   0.19999674   -4117.3141   0.39999505   -4114.2655   0.60000464   -4114.2661   0.80000308   -4117.3139            1   -4117.9513 
2350   0.08952449  0.015512594 7.291362e-15 1.0291791e-14     2.768329    3.6825584    3.6825584     3.963541            0   -4117.9513   0.19999699   -4117.3161   0.39999388   -4114.2687   0.60000596   -4114.2693   0.80000287   -4117.3159            1   -4117.9513 
2360  0.086899759 0.0033683494 7.1757297e-15 1.0291791e-14    2.7724573    3.6790674    3.6790674    3.9635406            0   -4117.9513   0.19999703   -4117.3183   0.39999384   -4114.2722   0.60000615   -4114.2728    0.8000029   -4117.3182            1   -4117.9513 
2370  0.087277626 0.0057209727 7.4010525e-15 1.0291791e-14    2.7760273    3.6753879    3.6753879    3.9635406            0   -4117.9513   0.19999709   -4117.3207   0.39999461   -4114.2759   0.60000548   -4114.2765   0.80000291   -4117.3205            1   -4117.9513 
2380   0.13458608  0.071416343 7.1306859e-15 1.0293445e-14    2.7805583    3.6716247    3.6716247    3.9635492            0   -4117.9513   0.19999654   -4117.3232   0.39999346   -4114.2796   0.60000669   -4114.2802   0.80000351    -4117.323            1   -4117.9513 
2390   0.11812115  0.055540494 7.1306859e-15 1.0293445e-14    2.7833112    3.6684465    3.6684465    3.9635458            0   -4117.9513   0.19999662   -4117.3252   0.39999419   -4114.2828   0.60000599   -4114.2834   0.80000345    -4117.325            1   -4117.9513 
2400   0.12643541  0.063877757 7.1306859e-15 1.0293445e-14    2.7869698    3.6650629    3.6650629    3.9635476            0   -4117.9513   0.19999667   -4117.3273    0.3999946   -4114.2862    0.6000056   -4114.2868   0.80000343   -4117.3271            1   -4117.9513 
2410    0.1175715  0.055036685 7.1306859e-15 1.0291058e-14    2.7901652    3.6616901    3.6616901    3.9635458            0   -4117.9513   0.19999683   -4117.3294     0.399995   -4114.2896   0.60000519   -4114.2902   0.80000327   -4117.3292            1   -4117.9513 
2420   0.09437712  0.024892717 7.1306859e-15 1.0291058e-14    2.7936952    3.6581742    3.6581742    3.9635416            0   -4117.9513   0.19999711   -4117.3315   0.39999539   -4114.2931   0.60000474   -4114.2937   0.80000298   -4117.3314            1   -4117.9513 
2430  0.089612933   0.01341594 7.1306859e-15 1.0291058e-14    2.7972189    3.6546525    3.6546525    3.9635409            0   -4117.9513   0.19999715   -4117.3337     0.399995   -4114.2966   0.60000507   -4114.2972   0.80000291   -4117.3335            1   -4117.9513 
2440   0.14490716  0.080270115 7.4010525e-15 1.0291058e-14     2.801759    3.6508149    3.6508149    3.9635517            0   -4117.9513   0.19999684   -4117.3361     0.399994   -4114.3005   0.60000603   -4114.3011   0.80000319   -4117.3359            1   -4117.9513 
2450   0.11066732  0.046940713 7.4010525e-15 1.0291058e-14    2.8052176    3.6471691    3.6471691    3.9635442            0   -4117.9513    0.1999969   -4117.3383   0.39999496   -4114.3041   0.60000505   -4114.3047   0.80000312   -4117.3381            1   -4117.9513 
2460  0.088722196 0.0084534732 6.2853214e-15 1.0293445e-14    2.8080727    3.6436466    3.6436466    3.9635407            0   -4117.9513   0.19999709   -4117.3404   0.39999288   -4114.3076   0.60000702   -4114.3082    0.8000029   -4117.3402            1   -4117.9513 
2470  0.093851535  0.022782188 7.1306859e-15 1.0289404e-14    2.8117111     3.640158     3.640158    3.9635414            0   -4117.9513   0.19999682   -4117.3425   0.39999357   -4114.3111   0.60000631   -4114.3117   0.80000314   -4117.3423            1   -4117.9513 
2480  0.090174237  0.013331912 7.1306859e-15 1.0291791e-14    2.8149529     3.636723     3.636723    3.9635409            0   -4117.9513   0.19999689   -4117.3445   0.39999369   -4114.3145   0.60000619   -4114.3152   0.80000305   -4117.3443            1   -4117.9513 
2490  0.096220753  0.026647172 6.5627982e-15 9.1599276e-15    2.8194775    3.6326403    3.6326403    3.9635418            0   -4117.9513   0.19999719    -4117.347   0.39999665   -4114.3186   0.60000324   -4114.3192   0.80000275   -4117.3468            1   -4117.9513 
2500  0.099403185  0.031667819 7.3800334e-15 1.0970658e-14    2.8235436    3.6286133    3.6286133    3.9635423            0   -4117.9513   0.19999728   -4117.3493   0.39999263   -4114.3227   0.60000724   -4114.3233   0.80000266   -4117.3491            1   -4117.9513 
2510  0.089504197 0.0093100842 7.3626849e-15 1.0880569e-14     2.826965    3.6251319    3.6251319    3.9635407            0   -4117.9513   0.19999701   -4117.3513   0.39999402   -4114.3261   0.60000585   -4114.3267   0.80000292   -4117.3511            1   -4117.9513 
2520  0.091896416  0.016941639 6.4358066e-15 1.0990621e-14    2.8306095    3.6215865    3.6215865    3.9635411            0   -4117.9513   0.19999683   -4117.3534   0.39999339   -4114.3297    0.6000065   -4114.3303   0.80000311   -4117.3532            1   -4117.9513 
2530   0.13547256   0.07113215 7.2910428e-15 1.0990621e-14    2.8353293    3.6178628    3.6178628    3.9635491            0   -4117.9513   0.19999658   -4117.3556   0.39999409   -4114.3334   0.60000582    -4114.334   0.80000337   -4117.3554            1   -4117.9513 
2540   0.12172789  0.057774237 6.5903697e-15 1.0990621e-14    2.8387695    3.6140199    3.6140199    3.9635462            0   -4117.9513    0.1999969   -4117.3578   0.39999585   -4114.3372   0.60000408   -4114.3379   0.80000305   -4117.3576            1   -4117.9513 
2550  0.090199819  0.010407819 7.2910428e-15 1.0990621e-14      2.84131    3.6108684    3.6108684    3.9635408            0   -4117.9513   0.19999697   -4117.3595   0.39999432   -4114.3404   0.60000563    -4114.341     0.800003   -4117.3593            1   -4117.9513 
2560  0.089120891 0.0029465928 7.2910428e-15 1.0990621e-14    2.8449008    3.6070599    3.6070599    3.9635406            0   -4117.9513   0.19999706   -4117.3617   0.39999437   -4114.3442   0.60000559   -4114.3448   0.80000291   -4117.3615            1   -4117.9513 
2570  0.089779511 0.0071294978 7.2910428e-15 1.0990621e-14    2.8492768    3.6025516    3.6025516    3.9635407            0   -4117.9513   0.19999731   -4117.3642   0.39999392   -4114.3487   0.60000599   -4114.3493   0.80000266    -4117.364            1   -4117.9513 
2580   0.12944705  0.064874061 7.3787154e-15 1.0990621e-14    2.8541205    3.5984994    3.5984994    3.9635479            0   -4117.9513   0.19999699   -4117.3665   0.39999544   -4114.3528   0.60000448   -4114.3534   0.80000297   -4117.3663            1   -4117.9513 
2590  0.092101679  0.015285252 7.3787154e-15 1.0990621e-14    2.8567394    3.5949909    3.5949909     3.963541            0   -4117.9513   0.19999719   -4117.3684   0.39999531   -4114.3563   0.60000461   -4114.3569   0.80000277   -4117.3682            1   -4117.9513 
2600   0.20398663   0.12686605 4.1740752e-15 1.2320481e-14    2.8635581    3.5906192    3.5906192    3.9635684            0   -4117.9513   0.19999626   -4117.3709   0.39999329   -4114.3606   0.60000665   -4114.3613    0.8000037   -4117.3708            1   -4117.9513 
2610   0.10067713  0.031616937 4.1160894e-15 1.2320481e-14    2.8646292    3.5868831    3.5868831    3.9635423            0   -4117.9513   0.19999671   -4117.3728   0.39999319   -4114.3644   0.60000677    -4114.365   0.80000326   -4117.3726            1   -4117.9513 
2620  0.090171607  0.005717971 6.800386e-15 1.5201008e-14    2.8684666    3.5827575    3.5827575    3.9635406            0   -4117.9513   0.19999709    -4117.375   0.39999666   -4114.3685   0.60000331   -4114.3691   0.80000288   -4117.3749            1   -4117.9513 
2630   0.21900198   0.13829651 5.4532204e-15 5.6678868e-15    2.8769018    3.5773158    3.5773158    3.9635735            0   -4117.9513   0.19999616   -4117.3781   0.39999401   -4114.3739   0.60000599   -4114.3746   0.80000383    -4117.378            1   -4117.9513 
2640   0.12419361  0.059316369 5.4464353e-15 5.8713884e-15    2.8776226    3.5738026    3.5738026    3.9635466            0   -4117.9513   0.19999661   -4117.3798   0.39999364   -4114.3775   0.60000628   -4114.3781   0.80000336   -4117.3797            1   -4117.9513 
2650   0.11385772  0.048336446 6.445101e-15 5.8722876e-15    2.8812661    3.5700471    3.5700471    3.9635446            0   -4117.9513   0.19999675   -4117.3818   0.39999517   -4114.3812   0.60000477   -4114.3819   0.80000322   -4117.3816            1   -4117.9513 
2660  0.097265289  0.025098685 6.445101e-15 5.8722876e-15    2.8847811    3.5662247    3.5662247    3.9635417            0   -4117.9513     0.199997   -4117.3838   0.39999554    -4114.385   0.60000439   -4114.3857   0.80000297   -4117.3836            1   -4117.9513 
2670  0.092568905   0.01379251 6.445101e-15 5.8722876e-15     2.888221    3.5626361    3.5626361    3.9635409            0   -4117.9513   0.19999703   -4117.3857   0.39999462   -4114.3886   0.60000528   -4114.3893   0.80000293   -4117.3855            1   -4117.9513 
2680   0.12758283  0.062242806 6.4863259e-15 5.7658522e-15    2.8926237    3.5586962    3.5586962    3.9635472            0   -4117.9513    0.1999969   -4117.3877   0.39999365   -4114.3926   0.60000624   -4114.3932   0.80000305   -4117.3876            1   -4117.9513 
2690  0.093978329  0.017121186 6.4967543e-15 5.8404449e-15    2.8959732    3.5548392    3.5548392    3.9635411            0   -4117.9513   0.19999706   -4117.3897   0.39999578   -4114.3964   0.60000411   -4114.3971   0.80000288   -4117.3895            1   -4117.9513 
2700  0.099292057  0.027900832 6.3402586e-15 5.8404449e-15    2.8995761     3.551104     3.551104    3.9635419            0   -4117.9513   0.19999694   -4117.3916   0.39999323   -4114.4002   0.60000667   -4114.4008   0.80000301   -4117.3914            1   -4117.9513 
2710   0.11481179  0.048601366 6.3402586e-15 5.8404449e-15    2.9033336    3.5474313    3.5474313    3.9635447            0   -4117.9513   0.19999673   -4117.3935   0.39999386   -4114.4038   0.60000605   -4114.4045   0.80000322   -4117.3933            1   -4117.9513 
2720  0.098912975  0.026754032 6.3402586e-15 5.7658522e-15    2.9066799    3.5437207    3.5437207    3.9635418            0   -4117.9513   0.19999696   -4117.3953   0.39999461   -4114.4075   0.60000532   -4114.4082     0.800003   -4117.3952            1   -4117.9513 
2730  0.092537356  0.011266726 6.3402586e-15 5.7658522e-15    2.9102919    3.5399381    3.5399381    3.9635408            0   -4117.9513   0.19999704   -4117.3972   0.39999465   -4114.4113   0.60000533    -4114.412   0.80000293    -4117.397            1   -4117.9513 
2740  0.091927708 0.0079447788 6.3402586e-15 5.7658522e-15     2.913797    3.5361292    3.5361292    3.9635407            0   -4117.9513   0.19999707   -4117.3991   0.39999435   -4114.4151   0.60000569   -4114.4158   0.80000293   -4117.3989            1   -4117.9513 
2750   0.14354867  0.076722328 7.7226556e-15 6.5876921e-15    2.9197327    3.5312292    3.5312292    3.9635509            0   -4117.9513   0.19999704   -4117.4016   0.39999644     -4114.42   0.60000359   -4114.4207   0.80000298   -4117.4014            1   -4117.9513 
2760  0.091488016 0.0027236926 7.6151573e-15 6.5471792e-15    2.9217167    3.5278245    3.5278245    3.9635406            0   -4117.9513   0.19999708   -4117.4032   0.39999477   -4114.4234   0.60000522   -4114.4241   0.80000292    -4117.403            1   -4117.9513 
2770  0.096724184  0.021563975 6.6760246e-15 6.5042048e-15    2.9262326    3.5232818    3.5232818    3.9635414            0   -4117.9513   0.19999681   -4117.4054    0.3999921    -4114.428    0.6000079   -4114.4286   0.80000319   -4117.4052            1   -4117.9513 
2780  0.095967158  0.019655788 6.7908351e-15 6.5042048e-15    2.9298132    3.5195399    3.5195399    3.9635412            0   -4117.9513   0.19999664   -4117.4072   0.39999333   -4114.4317   0.60000667   -4114.4324   0.80000336    -4117.407            1   -4117.9513 
2790   0.13187742  0.065585713 6.6967058e-15 6.5042048e-15    2.9345277    3.5155946    3.5155946    3.9635482            0   -4117.9513   0.19999652   -4117.4091   0.39999401   -4114.4357   0.60000596   -4114.4363   0.80000348    -4117.409            1   -4117.9513 
2800  0.094886887  0.016259158 3.7749384e-15 6.5051969e-15    2.9378113      3.51181      3.51181     3.963541            0   -4117.9513   0.19999693   -4117.4109   0.39999414   -4114.4395   0.60000578   -4114.4401   0.80000305   -4117.4107            1   -4117.9513 
2810  0.092178889  0.003204484 3.7107207e-15 6.5051969e-15    2.9416501    3.5077942    3.5077942    3.9635406            0   -4117.9513   0.19999697   -4117.4128   0.39999422   -4114.4435   0.60000567   -4114.4441   0.80000299   -4117.4126            1   -4117.9513 
2820   0.11215462  0.044161378 6.7059312e-15 6.5051969e-15    2.9463804    3.5033319    3.5033319     3.963544            0   -4117.9513   0.19999691   -4117.4149   0.39999454   -4114.4479    0.6000053   -4114.4486   0.80000302   -4117.4147            1   -4117.9513 
2830  0.097961266   0.02252861 6.7059312e-15 6.5051969e-15    2.9499139    3.4994163    3.4994163    3.9635415            0   -4117.9513   0.19999701   -4117.4167   0.39999524   -4114.4518   0.60000459   -4114.4525   0.80000291   -4117.4166            1   -4117.9513 
2840  0.094251205  0.012579663 6.6116709e-15 6.5051969e-15    2.9534486     3.495495     3.495495    3.9635409            0   -4117.9513   0.19999705   -4117.4185   0.39999473   -4114.4558   0.60000507   -4114.4564   0.80000286   -4117.4184            1   -4117.9513 
2850  0.092914529 0.0053734154 6.5459785e-15 6.5051969e-15    2.9574104      3.49142      3.49142    3.9635406            0   -4117.9513   0.19999711   -4117.4204   0.39999381   -4114.4598   0.60000597   -4114.4605   0.80000279   -4117.4202            1   -4117.9513 
2860  0.098447813  0.022722749 6.6116709e-15 6.5051969e-15    2.9616666    3.4872061    3.4872061    3.9635415            0   -4117.9513   0.19999705   -4117.4223   0.39999493   -4114.4641   0.60000488   -4114.4647   0.80000285   -4117.4222            1   -4117.9513 
2870  0.095194952  0.014509693 4.2073979e-15 6.5051969e-15    2.9655341    3.4834316    3.4834316     3.963541            0   -4117.9513   0.19999693    -4117.424   0.39999431   -4114.4678   0.60000555   -4114.4685   0.80000298   -4117.4239            1   -4117.9513 
2880   0.17449569   0.10178809 1.1280845e-14 1.2554721e-14    2.9733386    3.4778766    3.4778766    3.9635589            0   -4117.9513    0.1999968   -4117.4266   0.39999618   -4114.4734    0.6000037   -4114.4741   0.80000314   -4117.4265            1   -4117.9513 
2890  0.099002548   0.02308158 7.3102235e-15 1.112841e-14    2.9749889    3.4740907    3.4740907    3.9635415            0   -4117.9513   0.19999728   -4117.4282    0.3999942   -4114.4772   0.60000589   -4114.4779   0.80000272   -4117.4281            1   -4117.9513 
2900  0.095606426  0.014496392 7.3102235e-15 1.0976995e-14    2.9788354    3.4703171    3.4703171    3.9635409            0   -4117.9513   0.19999711   -4117.4299   0.39999439   -4114.4809   0.60000572   -4114.4816   0.80000293   -4117.4298            1   -4117.9513 
2910  0.094376198 0.0094337858 7.3102235e-15 1.0976995e-14     2.982979    3.4662579    3.4662579    3.9635407            0   -4117.9513   0.19999715   -4117.4317   0.39999404    -4114.485   0.60000608   -4114.4857    0.8000029   -4117.4315            1   -4117.9513 
2920    0.1577187  0.087676147 7.209762e-15 1.3000443e-14    2.9890632    3.4615569    3.4615569    3.9635545            0   -4117.9513   0.19999668   -4117.4338   0.39999399   -4114.4897   0.60000612   -4114.4904   0.80000338   -4117.4337            1   -4117.9513 
2930  0.097741364  0.019474011 7.209762e-15 1.3000443e-14    2.9911316    3.4579289    3.4579289    3.9635412            0   -4117.9513   0.19999704   -4117.4353   0.39999496   -4114.4933   0.60000512    -4114.494   0.80000301   -4117.4352            1   -4117.9513 
2940  0.094632116 0.0084370373 1.2177144e-14 1.6908714e-14    2.9966372    3.4522197    3.4522197    3.9635407            0   -4117.9513   0.19999767   -4117.4378   0.39999359    -4114.499   0.60000639   -4114.4997   0.80000236   -4117.4376            1   -4117.9513 
2950   0.10657995    0.0350338 6.3781241e-15 5.8306908e-15    3.0012824    3.4480566    3.4480566    3.9635428            0   -4117.9513   0.19999721   -4117.4396   0.39999442   -4114.5032   0.60000558   -4114.5039    0.8000028   -4117.4394            1   -4117.9513 
2960   0.10232846  0.027877166 6.3781241e-15 5.8306908e-15    3.0052811     3.444243     3.444243     3.963542            0   -4117.9513   0.19999702   -4117.4412   0.39999479    -4114.507   0.60000518   -4114.5077   0.80000297    -4117.441            1   -4117.9513 
2970  0.096370328  0.013970665 6.3781241e-15 5.8306908e-15    3.0092174    3.4402086    3.4402086    3.9635409            0   -4117.9513   0.19999706   -4117.4429   0.39999489   -4114.5111   0.60000503   -4114.5118   0.80000292   -4117.4427            1   -4117.9513 
[...]
23124  0.012418603 0.0014826477 6.270006e-15 5.9533614e-15 0.0014826477    4.4969399    4.4969399    4.8416992            0   -4117.9513   0.36398269   -4117.9402   0.72796538   -4113.4543   0.81864359    -4117.948   0.90932179   -4117.9508            1   -4117.9513 
23134  0.012381664 0.0059052106 6.2485907e-15 5.9533614e-15 0.0059052106    4.4969404    4.4969404    4.8416992            0   -4117.9513   0.36398269   -4117.9403   0.72796538   -4113.4543   0.81864359    -4117.948   0.90932179   -4117.9508            1   -4117.9513 
23144  0.012350114 0.0065394579 6.2485907e-15 5.9533614e-15 0.0065394579    4.4969405    4.4969405    4.8416992            0   -4117.9513   0.36398269   -4117.9404   0.72796538   -4113.4543   0.81864359    -4117.948   0.90932179   -4117.9508            1   -4117.9513 
23154  0.016267988  0.012336414 6.2485907e-15 5.9533614e-15  0.012336414    4.4969422    4.4969422    4.8416992            0   -4117.9513   0.36398268   -4117.9404   0.72796537   -4113.4543   0.81864359    -4117.948   0.90932179   -4117.9508            1   -4117.9513 
23164  0.012422083 0.0094205827 6.2485907e-15 5.9533614e-15 0.0094205827    4.4969412    4.4969412    4.8416992            0   -4117.9513   0.36398269   -4117.9405   0.72796537   -4113.4543   0.81864359    -4117.948   0.90932179   -4117.9508            1   -4117.9513 
23174  0.012241506 0.0016050461 6.0539237e-15 5.992514e-15 0.0016050461    4.4969399    4.4969399    4.8416992            0   -4117.9513   0.36398269   -4117.9406   0.72796538   -4113.4543   0.81864359   -4117.9481   0.90932179   -4117.9508            1   -4117.9513 
23184  0.012203247 0.0023565426 6.0332737e-15 5.992514e-15 0.0023565426    4.4969399    4.4969399    4.8416992            0   -4117.9513   0.36398269   -4117.9406   0.72796538   -4113.4543   0.81864359   -4117.9481   0.90932179   -4117.9508            1   -4117.9513 
23194  0.012167119 0.0077570839 6.0332737e-15 5.992514e-15 0.0077570839    4.4969408    4.4969408    4.8416992            0   -4117.9513   0.36398269   -4117.9407   0.72796538   -4113.4543   0.81864359   -4117.9481   0.90932179   -4117.9508            1   -4117.9513 
23204  0.012135454 0.0053709599 6.0332737e-15 5.992514e-15 0.0053709599    4.4969403    4.4969403    4.8416992            0   -4117.9513   0.36398269   -4117.9408   0.72796538   -4113.4543   0.81864359   -4117.9481   0.90932179   -4117.9508            1   -4117.9513 
23214  0.012096248 0.0035230184 6.0045556e-15 5.992514e-15 0.0035230184    4.4969401    4.4969401    4.8416992            0   -4117.9513   0.36398269   -4117.9408   0.72796538   -4113.4543   0.81864358   -4117.9481   0.90932179   -4117.9508            1   -4117.9513 
23224  0.012061764 0.0020944609 6.0539237e-15 5.992514e-15 0.0020944609    4.4969399    4.4969399    4.8416992            0   -4117.9513   0.36398269   -4117.9409   0.72796538   -4113.4543   0.81864359   -4117.9482   0.90932179   -4117.9508            1   -4117.9513 
23234  0.012028534 0.0017316084 6.0539237e-15 5.992514e-15 0.0017316084    4.4969399    4.4969399    4.8416992            0   -4117.9513   0.36398269   -4117.9409   0.72796538   -4113.4543   0.81864358   -4117.9482   0.90932179   -4117.9509            1   -4117.9513 
23244  0.011991862 0.00090853724 6.0539237e-15 5.992514e-15 0.00090853724    4.4969399    4.4969399    4.8416992            0   -4117.9513   0.36398269    -4117.941   0.72796538   -4113.4543   0.81864358   -4117.9482   0.90932179   -4117.9509            1   -4117.9513 
23254  0.017151165  0.013005703 6.0539237e-15 5.992514e-15  0.013005703    4.4969425    4.4969425    4.8416993            0   -4117.9513   0.36398268   -4117.9411   0.72796537   -4113.4543   0.81864359   -4117.9482   0.90932179   -4117.9509            1   -4117.9513 
23264  0.011922284 0.0010204597 6.0539237e-15 5.992514e-15 0.0010204597    4.4969399    4.4969399    4.8416992            0   -4117.9513   0.36398269   -4117.9411   0.72796538   -4113.4543   0.81864358   -4117.9482   0.90932179   -4117.9509            1   -4117.9513 
23274   0.01529471  0.011598864 6.2989816e-15 5.992514e-15  0.011598864     4.496942     4.496942    4.8416993            0   -4117.9513   0.36398268   -4117.9412   0.72796537   -4113.4543   0.81864358   -4117.9483   0.90932179   -4117.9509            1   -4117.9513 
23284    0.0118451 0.0014498081 6.2999511e-15 5.992514e-15 0.0014498081    4.4969399    4.4969399    4.8416992            0   -4117.9513   0.36398269   -4117.9413   0.72796537   -4113.4543   0.81864358   -4117.9483   0.90932179   -4117.9509            1   -4117.9513 
23294   0.01181281  0.001417657 6.2989816e-15 5.992514e-15  0.001417657    4.4969399    4.4969399    4.8416992            0   -4117.9513   0.36398269   -4117.9413   0.72796537   -4113.4543   0.81864358   -4117.9483   0.90932179   -4117.9509            1   -4117.9513 
23304  0.011780255 0.0033989759 6.2989816e-15 5.992514e-15 0.0033989759      4.49694      4.49694    4.8416992            0   -4117.9513   0.36398269   -4117.9414   0.72796537   -4113.4543   0.81864358   -4117.9483   0.90932179   -4117.9509            1   -4117.9513 
23314  0.011748359 0.0021711884 6.2989816e-15 5.992514e-15 0.0021711884    4.4969399    4.4969399    4.8416992            0   -4117.9513   0.36398269   -4117.9414   0.72796537   -4113.4543   0.81864358   -4117.9483   0.90932179   -4117.9509            1   -4117.9513 
23324  0.011715136 0.0056887265 6.2989816e-15 5.992514e-15 0.0056887265    4.4969404    4.4969404    4.8416992            0   -4117.9513   0.36398269   -4117.9415   0.72796537   -4113.4543   0.81864358   -4117.9483   0.90932179   -4117.9509            1   -4117.9513 
23334  0.011681108 0.0051011542 6.2989816e-15 5.992514e-15 0.0051011542    4.4969403    4.4969403    4.8416992            0   -4117.9513   0.36398269   -4117.9415   0.72796537   -4113.4543   0.81864358   -4117.9484   0.90932179   -4117.9509            1   -4117.9513 
23344  0.011649878 0.0062188026 6.2989816e-15 5.992514e-15 0.0062188026    4.4969405    4.4969405    4.8416992            0   -4117.9513   0.36398269   -4117.9416   0.72796537   -4113.4543   0.81864358   -4117.9484   0.90932179   -4117.9509            1   -4117.9513 
23354  0.011611914 0.0023757254 6.0539237e-15 5.992514e-15 0.0023757254    4.4969399    4.4969399    4.8416992            0   -4117.9513   0.36398269   -4117.9416   0.72796537   -4113.4543   0.81864358   -4117.9484   0.90932179   -4117.9509            1   -4117.9513 
23364  0.011570448 0.0054570546 6.1679334e-15 5.992514e-15 0.0054570546    4.4969403    4.4969403    4.8416992            0   -4117.9513   0.36398268   -4117.9417   0.72796537   -4113.4543   0.81864358   -4117.9484   0.90932179   -4117.9509            1   -4117.9513 
23374  0.011536187  0.001904075 6.1039023e-15 5.992514e-15  0.001904075    4.4969399    4.4969399    4.8416992            0   -4117.9513   0.36398269   -4117.9418   0.72796537   -4113.4543   0.81864358   -4117.9484   0.90932179   -4117.9509            1   -4117.9513 
23384   0.01577177  0.011960782 6.1248173e-15 5.992514e-15  0.011960782    4.4969421    4.4969421    4.8416993            0   -4117.9513   0.36398268   -4117.9418   0.72796536   -4113.4543   0.81864358   -4117.9484   0.90932179   -4117.9509            1   -4117.9513 
23394  0.011467338 0.0019864942 6.1248173e-15 5.992514e-15 0.0019864942    4.4969399    4.4969399    4.8416992            0   -4117.9513   0.36398269   -4117.9419   0.72796537   -4113.4543   0.81864358   -4117.9485   0.90932179   -4117.9509            1   -4117.9513 
23404  0.011435664 0.0041726845 6.1039023e-15 5.992514e-15 0.0041726845    4.4969401    4.4969401    4.8416992            0   -4117.9513   0.36398268   -4117.9419   0.72796537   -4113.4543   0.81864358   -4117.9485   0.90932179   -4117.9509            1   -4117.9513 
23414  0.011406289 0.0032854426 6.1039023e-15 5.992514e-15 0.0032854426      4.49694      4.49694    4.8416992            0   -4117.9513   0.36398268    -4117.942   0.72796537   -4113.4543   0.81864358   -4117.9485   0.90932179   -4117.9509            1   -4117.9513 
23424  0.011376347 0.0022806336 6.1039023e-15 5.992514e-15 0.0022806336    4.4969399    4.4969399    4.8416992            0   -4117.9513   0.36398268    -4117.942   0.72796537   -4113.4543   0.81864358   -4117.9485   0.90932179   -4117.9509            1   -4117.9513 
23434  0.011342766 0.0031142816 6.1039023e-15 5.992514e-15 0.0031142816      4.49694      4.49694    4.8416992            0   -4117.9513   0.36398268   -4117.9421   0.72796537   -4113.4543   0.81864358   -4117.9485   0.90932179   -4117.9509            1   -4117.9513 
23444  0.011311511 0.0026461659 6.1039023e-15 5.992514e-15 0.0026461659      4.49694      4.49694    4.8416992            0   -4117.9513   0.36398268   -4117.9421   0.72796537   -4113.4543   0.81864358   -4117.9485   0.90932179   -4117.9509            1   -4117.9513 
23454  0.011279023 0.0028640956 6.1039023e-15 5.992514e-15 0.0028640956      4.49694      4.49694    4.8416992            0   -4117.9513   0.36398268   -4117.9422   0.72796537   -4113.4543   0.81864358   -4117.9485   0.90932179   -4117.9509            1   -4117.9513 
23464  0.011247846  0.003085328 6.1039023e-15 5.992514e-15  0.003085328      4.49694      4.49694    4.8416992            0   -4117.9513   0.36398268   -4117.9422   0.72796537   -4113.4543   0.81864358   -4117.9486   0.90932179   -4117.9509            1   -4117.9513 
23474  0.011216547 0.00025652639 6.1039023e-15 5.992514e-15 0.00016569539    4.4969399    4.4969399    4.8416992            0   -4117.9513   0.36398268   -4117.9423   0.72796537   -4113.4543   0.81864358   -4117.9486   0.90932179   -4117.9509            1   -4117.9513 
23484  0.011170274 0.0059202201 6.1461625e-15 5.9534988e-15 0.0059202201    4.4969404    4.4969404    4.8416992            0   -4117.9513   0.36398268   -4117.9423   0.72796537   -4113.4543   0.81864358   -4117.9486   0.90932179   -4117.9509            1   -4117.9513 
23494  0.011135552 0.0044277104 6.1017406e-15 5.9163101e-15 0.0044277104    4.4969402    4.4969402    4.8416992            0   -4117.9513   0.36398268   -4117.9424   0.72796537   -4113.4543   0.81864358   -4117.9486   0.90932179   -4117.9509            1   -4117.9513 
23504  0.012603995 0.0095585474 6.1017406e-15 5.9534988e-15 0.0095585474    4.4969413    4.4969413    4.8416993            0   -4117.9513   0.36398268   -4117.9425   0.72796536   -4113.4543   0.81864358   -4117.9486   0.90932179   -4117.9509            1   -4117.9513 
23514  0.013503292  0.010240498 6.1017406e-15 5.9534988e-15  0.010240498    4.4969415    4.4969415    4.8416993            0   -4117.9513   0.36398268   -4117.9425   0.72796536   -4113.4543   0.81864358   -4117.9486   0.90932179   -4117.9509            1   -4117.9513 
23524  0.011036544 0.00065584378 6.1679334e-15 5.9534988e-15 0.00065584378    4.4969399    4.4969399    4.8416992            0   -4117.9513   0.36398268   -4117.9426   0.72796537   -4113.4543   0.81864358   -4117.9487   0.90932179   -4117.9509            1   -4117.9513 
23534  0.011004575 0.0027740585 6.1679334e-15 5.9534988e-15 0.0027740585      4.49694      4.49694    4.8416992            0   -4117.9513   0.36398268   -4117.9426   0.72796537   -4113.4543   0.81864358   -4117.9487   0.90932179   -4117.9509            1   -4117.9513 
23544  0.014682152  0.011134471 6.1039023e-15 5.9163101e-15  0.011134471    4.4969418    4.4969418    4.8416993            0   -4117.9513   0.36398268   -4117.9427   0.72796536   -4113.4543   0.81864358   -4117.9487   0.90932179   -4117.9509            1   -4117.9513 
23554  0.010934652 0.0013195991 6.1212382e-15 5.9534988e-15 0.0013195991    4.4969399    4.4969399    4.8416993            0   -4117.9513   0.36398268   -4117.9427   0.72796537   -4113.4543   0.81864358   -4117.9487   0.90932179   -4117.9509            1   -4117.9513 
23564  0.010905527 0.0021408092 6.1212382e-15 5.9534988e-15 0.0021408092    4.4969399    4.4969399    4.8416993            0   -4117.9513   0.36398268   -4117.9428   0.72796537   -4113.4543   0.81864358   -4117.9487   0.90932179   -4117.9509            1   -4117.9513 
23574  0.010873532 0.0013344298 6.1017406e-15 5.9534988e-15 0.0013344298    4.4969399    4.4969399    4.8416993            0   -4117.9513   0.36398268   -4117.9428   0.72796537   -4113.4543   0.81864358   -4117.9487   0.90932179   -4117.9509            1   -4117.9513 
23584  0.010842284  0.002223465 6.1017406e-15 5.9534988e-15  0.002223465    4.4969399    4.4969399    4.8416993            0   -4117.9513   0.36398268   -4117.9429   0.72796536   -4113.4543   0.81864358   -4117.9488   0.90932179   -4117.9509            1   -4117.9513 
23594  0.010801705 0.0016870543 6.7777884e-15 5.9516304e-15 0.0016870543    4.4969399    4.4969399    4.8416993            0   -4117.9513   0.36398268   -4117.9429   0.72796536   -4113.4543   0.81864358   -4117.9488   0.90932179   -4117.9509            1   -4117.9513 
23604  0.018649525  0.014140627 3.4567851e-15 7.0325687e-15  0.014140627     4.496943     4.496943    4.8416993            0   -4117.9513   0.36398268    -4117.943   0.72796536   -4113.4543   0.81864358   -4117.9488   0.90932179   -4117.9509            1   -4117.9513 
23614  0.010730493 0.0014001717 3.4589016e-15 3.088877e-15 0.0014001717    4.4969399    4.4969399    4.8416993            0   -4117.9513   0.36398268    -4117.943   0.72796536   -4113.4543   0.81864358   -4117.9488   0.90932179   -4117.9509            1   -4117.9513 
23624  0.010701311  0.002357464 3.4589016e-15 3.0597781e-15  0.002357464    4.4969399    4.4969399    4.8416993            0   -4117.9513   0.36398268   -4117.9431   0.72796536   -4113.4543   0.81864358   -4117.9488   0.90932179   -4117.9509            1   -4117.9513 
23634  0.010672677 0.00090784362 3.4589016e-15 3.0597781e-15 0.00090784362    4.4969399    4.4969399    4.8416993            0   -4117.9513   0.36398268   -4117.9431   0.72796536   -4113.4543   0.81864358   -4117.9488   0.90932179   -4117.9509            1   -4117.9513 
23644  0.010642179 0.0044589115 3.4589016e-15 3.0597781e-15 0.0044589115    4.4969402    4.4969402    4.8416993            0   -4117.9513   0.36398268   -4117.9432   0.72796536   -4113.4543   0.81864358   -4117.9488   0.90932179   -4117.9509            1   -4117.9513 
23654  0.010615084 0.0052104282 3.4589016e-15 3.0597781e-15 0.0052104282    4.4969403    4.4969403    4.8416993            0   -4117.9513   0.36398268   -4117.9432   0.72796536   -4113.4543   0.81864358   -4117.9489   0.90932179   -4117.9509            1   -4117.9513 
23664  0.010587357 0.0065846092 3.4589016e-15 3.0597781e-15 0.0065846092    4.4969405    4.4969405    4.8416993            0   -4117.9513   0.36398268   -4117.9433   0.72796536   -4113.4543   0.81864358   -4117.9489   0.90932179   -4117.9509            1   -4117.9513 
23674  0.012771368 0.0096854866 3.4589016e-15 3.0597781e-15 0.0096854866    4.4969413    4.4969413    4.8416993            0   -4117.9513   0.36398268   -4117.9433   0.72796536   -4113.4543   0.81864358   -4117.9489   0.90932179   -4117.9509            1   -4117.9513 
23684  0.010529772 0.0038575011 3.4589016e-15 3.0597781e-15 0.0038575011    4.4969401    4.4969401    4.8416993            0   -4117.9513   0.36398268   -4117.9434   0.72796536   -4113.4543   0.81864357   -4117.9489   0.90932179   -4117.9509            1   -4117.9513 
23694   0.01049498 0.0022830055 6.1693852e-15 7.8455302e-15 0.0022830055    4.4969399    4.4969399    4.8416993            0   -4117.9513   0.36398268   -4117.9434   0.72796536   -4113.4543   0.81864357   -4117.9489   0.90932179    -4117.951            1   -4117.9513 
23704  0.010457117 0.0009493183 6.1461625e-15 5.992514e-15 0.0009493183    4.4969399    4.4969399    4.8416993            0   -4117.9513   0.36398268   -4117.9435   0.72796536   -4113.4543   0.81864357   -4117.9489   0.90932179    -4117.951            1   -4117.9513 
23714  0.010426315 0.0067935684 6.1461625e-15 5.992514e-15 0.0067935684    4.4969406    4.4969406    4.8416993            0   -4117.9513   0.36398268   -4117.9435   0.72796536   -4113.4543   0.81864358   -4117.9489   0.90932179    -4117.951            1   -4117.9513 
23724  0.014393321  0.010915413 6.1679334e-15 5.992514e-15  0.010915413    4.4969417    4.4969417    4.8416994            0   -4117.9513   0.36398268   -4117.9436   0.72796535   -4113.4543   0.81864357    -4117.949   0.90932179    -4117.951            1   -4117.9513 
23734  0.010369577 0.0031783262 6.1679334e-15 5.992514e-15 0.0031783262      4.49694      4.49694    4.8416993            0   -4117.9513   0.36398268   -4117.9436   0.72796536   -4113.4543   0.81864357    -4117.949   0.90932179    -4117.951            1   -4117.9513 
23744  0.010342857 0.0023110837 6.1679334e-15 5.992514e-15 0.0023110837    4.4969399    4.4969399    4.8416993            0   -4117.9513   0.36398268   -4117.9436   0.72796536   -4113.4543   0.81864357    -4117.949   0.90932179    -4117.951            1   -4117.9513 
23754    0.0103141 0.0029231302 6.1679334e-15 5.992514e-15 0.0029231302      4.49694      4.49694    4.8416993            0   -4117.9513   0.36398268   -4117.9437   0.72796536   -4113.4543   0.81864357    -4117.949   0.90932179    -4117.951            1   -4117.9513 
23764  0.010286854 0.0024928124 6.1679334e-15 5.992514e-15 0.0024928124      4.49694      4.49694    4.8416993            0   -4117.9513   0.36398268   -4117.9437   0.72796536   -4113.4543   0.81864357    -4117.949   0.90932179    -4117.951            1   -4117.9513 
23774  0.010257214 0.00023450578 6.1679334e-15 5.992514e-15 6.5516721e-06    4.4969399    4.4969399    4.8416993            0   -4117.9513   0.36398268   -4117.9438   0.72796536   -4113.4543   0.81864357    -4117.949   0.90932179    -4117.951            1   -4117.9513 
23784   0.01020924 0.00025642907 7.3419779e-15 7.0303912e-15 0.00025642907    4.4969399    4.4969399    4.8416993            0   -4117.9513   0.36398268   -4117.9438   0.72796536   -4113.4543   0.81864357    -4117.949   0.90932179    -4117.951            1   -4117.9513 
23794  0.010168842 0.0026904527 8.6866266e-15 4.9011838e-15 0.0026904527      4.49694      4.49694    4.8416993            0   -4117.9513   0.36398268   -4117.9439   0.72796536   -4113.4543   0.81864357   -4117.9491   0.90932179    -4117.951            1   -4117.9513 
23804  0.010140982 0.0038715105 8.6866266e-15 3.9855605e-15 0.0038715105    4.4969401    4.4969401    4.8416993            0   -4117.9513   0.36398268   -4117.9439   0.72796536   -4113.4543   0.81864357   -4117.9491   0.90932179    -4117.951            1   -4117.9513 
23814  0.010112787 0.0010884891 8.6866266e-15 3.9855605e-15 0.0010884891    4.4969399    4.4969399    4.8416993            0   -4117.9513   0.36398268    -4117.944   0.72796536   -4113.4543   0.81864357   -4117.9491   0.90932179    -4117.951            1   -4117.9513 
23824  0.018886377   0.01432012 5.6750081e-15 3.7993227e-15   0.01432012    4.4969431    4.4969431    4.8416994            0   -4117.9513   0.36398267    -4117.944   0.72796535   -4113.4543   0.81864358   -4117.9491   0.90932179    -4117.951            1   -4117.9513 
23834  0.010045321 0.0012967245 5.688577e-15 4.8256261e-15 0.0012967245    4.4969399    4.4969399    4.8416993            0   -4117.9513   0.36398268   -4117.9441   0.72796536   -4113.4543   0.81864357   -4117.9491   0.90932179    -4117.951            1   -4117.9513 
23844   0.01001791  0.002918567 5.6711483e-15 3.7993227e-15  0.002918567      4.49694      4.49694    4.8416993            0   -4117.9513   0.36398268   -4117.9441   0.72796536   -4113.4543   0.81864357   -4117.9491   0.90932179    -4117.951            1   -4117.9513 
23851 0.0099985263 0.0061400522 5.6711483e-15 3.7993227e-15 0.0061400522    4.4969404    4.4969404    4.8416993            0   -4117.9513   0.36398268   -4117.9441   0.72796536   -4113.4543   0.81864357   -4117.9491   0.90932179    -4117.951            1   -4117.9513 
